# vtk DataFile Version 2.0
background mesh
ASCII
DATASET UNSTRUCTURED_GRID
POINTS 3621 double
0.447217 0.894426 0.500000
0.447217 0.894426 0.000000
0.707113 0.707103 0.000000
-0.707110 0.707110 0.500000
0.783961 0.620811 0.500000
0.004763 0.999991 0.000000
-0.453605 0.891213 0.000000
-0.959723 0.280960 0.500000
-0.337340 0.941386 0.500000
0.076366 0.997082 0.500000
0.629445 0.777138 0.256922
0.217846 0.975983 0.246125
-0.168848 0.985641 0.250000
-0.527098 0.849801 0.279821
-0.776890 0.629633 0.250000
0.386784 0.536625 0.000000
-0.101892 0.571761 0.000000
0.168970 0.189442 0.000000
-0.353162 0.284591 0.000000
0.160511 0.579873 0.500000
-0.319354 0.430674 0.500000
0.518849 0.206062 0.500000
-0.046372 -0.041349 0.500000
0.669150 0.743086 0.128461
0.546949 0.621864 0.000000
0.710960 0.703190 0.378461
0.585372 0.578718 0.250000
0.651405 0.413436 0.500000
0.508115 0.656882 0.128461
0.277877 0.363033 0.000000
0.452817 0.371344 0.250000
0.343910 0.197752 0.250000
0.061299 0.074046 0.250000
0.236238 0.082357 0.500000
0.164741 0.384658 0.250000
0.033539 0.380601 0.000000
-0.075192 0.310058 0.250000
0.029310 0.575817 0.250000
-0.079421 0.505274 0.500000
-0.210623 0.501217 0.250000
-0.227527 0.428176 0.000000
0.417000 0.715526 0.250000
0.335083 0.942218 0.373062
0.447201 0.894396 0.250000
0.302315 0.756304 0.123062
0.417000 0.715526 0.000000
0.335083 0.942218 0.123062
-0.386479 0.660943 0.250000
-0.254059 0.967187 0.375000
-0.133423 0.991055 0.500000
-0.088414 0.760630 0.500000
-0.046594 0.998913 0.375000
-0.004168 0.782757 0.375000
0.118439 0.788478 0.500000
0.057977 0.773872 0.123062
-0.135370 0.778701 0.125000
0.024969 0.999694 0.248062
0.189179 0.777928 0.373062
-0.277748 0.731487 0.000000
-0.314787 0.949163 0.125000
-0.244101 0.708157 0.375000
0.339680 0.392968 0.500000
0.057070 0.269262 0.500000
0.541392 0.840644 0.378461
0.541392 0.840644 0.128461
-0.328347 0.686030 0.500000
-0.354541 0.935039 0.264911
-0.434638 0.900607 0.389911
-0.423226 0.640237 0.389911
0.472236 0.600342 0.500000
0.273647 0.558249 0.250000
-0.490787 0.871280 0.139911
-0.661225 0.750192 0.264911
0.147479 0.989027 0.373062
0.142446 0.554193 0.000000
-0.743016 0.669286 0.375000
-0.621214 0.783640 0.389911
-0.513232 0.568892 0.500000
0.303864 0.737150 0.500000
0.630702 0.776112 0.500000
-0.535199 0.844728 0.500000
0.111952 0.993699 0.123062
0.232012 0.972747 -0.000000
0.195773 0.768308 0.000000
0.584805 0.811378 0.000000
0.266767 0.963893 0.500000
-0.048565 0.785876 0.000000
-0.860238 0.509936 0.500000
-0.082355 0.996599 0.125000
-0.230918 0.972971 -0.000000
-0.628991 0.777411 0.125000
-0.403383 0.587902 0.000000
-0.885647 0.464383 0.375000
-0.639539 0.355817 0.500000
-0.565026 0.457112 0.125000
-0.548122 0.530153 0.375000
-0.092096 0.237016 0.000000
-0.336258 0.357632 0.250000
-0.199767 0.121621 0.250000
-0.182863 0.194662 0.500000
0.688349 0.725323 0.064231
0.627031 0.664484 0.000000
0.748609 0.663019 0.439231
0.684667 0.599764 0.375000
0.717683 0.517124 0.500000
0.649511 0.760361 0.192692
0.671184 0.741246 0.317692
0.568780 0.717010 0.192692
0.466866 0.579245 0.000000
0.486078 0.557672 0.125000
0.447449 0.596753 0.064231
0.332330 0.449829 0.000000
0.419800 0.453984 0.125000
0.223423 0.276238 0.000000
0.256440 0.193597 0.125000
0.115135 0.131744 0.125000
0.585127 0.309749 0.500000
0.485833 0.288703 0.375000
0.431379 0.201907 0.375000
0.377544 0.144209 0.500000
0.007464 0.016349 0.375000
0.094933 0.020504 0.500000
0.608049 0.682475 0.064231
0.588632 0.699984 0.128461
0.527532 0.639373 0.064231
0.648166 0.640954 0.314231
0.609537 0.680036 0.253461
0.618389 0.496077 0.375000
0.546743 0.617800 0.189231
0.519094 0.475031 0.250000
0.552111 0.392390 0.375000
0.365347 0.367189 0.125000
0.310893 0.280393 0.125000
0.398363 0.284548 0.250000
0.202604 0.135899 0.250000
0.290074 0.140054 0.375000
0.148769 0.078201 0.375000
0.166855 0.287050 0.125000
0.101255 0.285022 0.000000
0.046889 0.249750 0.125000
0.099140 0.382630 0.125000
0.044774 0.347358 0.250000
-0.020826 0.345330 0.125000
0.162626 0.482265 0.375000
0.097025 0.480237 0.250000
0.042660 0.444966 0.375000
0.094910 0.577845 0.375000
0.040545 0.542573 0.500000
-0.025056 0.540545 0.375000
0.031424 0.478209 0.125000
-0.034177 0.476181 0.000000
-0.088542 0.440909 0.125000
-0.036291 0.573789 0.125000
-0.090657 0.538517 0.250000
-0.156258 0.536489 0.125000
-0.077307 0.407666 0.375000
-0.142907 0.405638 0.250000
-0.197273 0.370366 0.375000
-0.145022 0.503246 0.375000
-0.199388 0.467974 0.500000
-0.264988 0.465946 0.375000
-0.022941 0.442938 0.250000
-0.164709 0.499969 0.000000
-0.096994 0.404389 0.000000
-0.219075 0.464697 0.125000
-0.290344 0.356383 0.000000
-0.159811 0.332596 0.000000
-0.281892 0.392904 0.125000
-0.214177 0.297324 0.125000
-0.029278 0.308809 0.000000
-0.083644 0.273537 0.125000
-0.273440 0.429425 0.250000
-0.205725 0.333845 0.250000
-0.151359 0.369117 0.125000
0.432109 0.804976 0.375000
0.391646 0.919466 0.436531
0.447201 0.894396 0.375000
0.376042 0.828872 0.311531
0.432101 0.804961 0.250000
0.391645 0.919466 0.311531
0.401892 0.626075 0.125000
0.359658 0.735915 0.186531
0.417000 0.715526 0.125000
0.344549 0.646465 0.061531
0.401892 0.626075 0.000000
0.359658 0.735915 0.061531
0.318699 0.849261 0.248062
0.277015 0.961021 0.309594
0.335083 0.942218 0.248063
0.260081 0.866144 0.184594
0.318699 0.849261 0.123062
0.277015 0.961021 0.184594
0.432101 0.804961 0.125000
0.391645 0.919466 0.186531
0.447201 0.894396 0.125000
0.376042 0.828872 0.061531
0.432109 0.804976 0.000000
0.391647 0.919465 0.061531
0.374758 0.825350 0.186531
-0.420042 0.776078 0.125000
-0.507735 0.719177 0.187500
-0.394931 0.624423 0.125000
-0.588557 0.653782 0.250000
-0.369821 0.472767 0.125000
-0.467301 0.595548 0.312500
-0.361369 0.509288 0.250000
-0.352917 0.545809 0.375000
-0.475753 0.559028 0.187500
-0.295981 0.955194 0.437500
-0.236688 0.971584 0.500000
-0.212877 0.851008 0.500000
-0.194109 0.980980 0.437500
-0.171237 0.863908 0.437500
-0.110919 0.875842 0.500000
-0.211655 0.977344 0.312500
-0.151160 0.988507 0.375000
-0.129114 0.874972 0.375000
-0.107925 0.994154 0.312500
-0.086508 0.884199 0.312500
-0.025381 0.890835 0.375000
-0.090094 0.995929 0.437500
-0.028687 0.999590 0.500000
-0.007492 0.889766 0.500000
0.014914 0.999894 0.437500
0.035922 0.893695 0.437500
0.097402 0.892780 0.500000
-0.046291 0.771693 0.437500
0.015012 0.774554 0.500000
0.036048 0.670251 0.500000
0.057135 0.785617 0.437500
0.078171 0.681315 0.437500
0.139475 0.684175 0.500000
-0.067504 0.879771 0.437500
-0.021957 0.672817 0.061531
-0.118631 0.675231 0.062500
-0.038696 0.776287 0.124031
0.043643 0.674845 0.186531
-0.053030 0.677259 0.187500
0.137912 0.874928 0.184594
0.041473 0.886783 0.185562
0.123578 0.775900 0.248062
0.121985 0.992510 0.247094
0.203512 0.876956 0.309594
0.107074 0.888811 0.310562
-0.055200 0.889198 0.186531
-0.152109 0.882171 0.187500
-0.069769 0.780729 0.250000
-0.072281 0.997381 0.249031
0.010400 0.891226 0.311531
0.109244 0.676873 0.311531
0.012571 0.679287 0.312500
0.092505 0.780343 0.374031
0.174845 0.678901 0.436531
0.027139 0.787756 0.249031
-0.365677 0.811350 0.000000
-0.385285 0.922796 0.062500
-0.296268 0.840325 0.062500
-0.332114 0.696215 0.125000
-0.350633 0.805053 0.187500
-0.189820 0.651624 0.000000
-0.206559 0.755094 0.062500
-0.244186 0.616352 0.125000
-0.172996 0.639959 0.187500
-0.225079 0.863932 0.125000
-0.242504 0.970148 0.187500
-0.279444 0.828660 0.250000
-0.189735 0.743429 0.250000
-0.206474 0.846899 0.312500
-0.298551 0.581080 0.250000
-0.315290 0.684550 0.312500
-0.227362 0.604687 0.312500
-0.281727 0.569416 0.437500
-0.260925 0.719822 0.187500
0.429265 0.299515 0.500000
0.341795 0.295360 0.375000
0.287959 0.237662 0.500000
0.250096 0.486420 0.500000
0.252210 0.388813 0.375000
0.198375 0.331115 0.500000
0.108790 0.424568 0.500000
0.110905 0.326960 0.375000
0.254325 0.291205 0.250000
0.113020 0.229352 0.250000
0.146654 0.175809 0.500000
0.059184 0.171654 0.375000
0.005349 0.113956 0.500000
0.200489 0.233507 0.375000
0.494736 0.868299 0.439231
0.479196 0.778085 0.314231
0.494736 0.868299 0.314231
0.462557 0.686204 0.189231
0.462557 0.686204 0.064231
0.494736 0.868299 0.189231
0.479196 0.778085 0.064231
0.494736 0.868299 0.064231
0.524753 0.748763 0.253461
0.541392 0.840644 0.253461
0.586390 0.810235 0.317692
0.524753 0.748763 0.128461
0.586390 0.810235 0.192692
0.479196 0.778085 0.189231
-0.041795 0.644015 0.437500
-0.124135 0.745457 0.375000
-0.161761 0.606716 0.437500
-0.107396 0.641987 0.312500
-0.083918 0.632952 0.500000
-0.208381 0.723330 0.500000
-0.332843 0.813708 0.500000
-0.291203 0.826608 0.437500
-0.249080 0.837672 0.375000
-0.203884 0.595652 0.500000
-0.286224 0.697094 0.437500
-0.323850 0.558352 0.500000
-0.166740 0.736230 0.437500
-0.442876 0.896585 0.272366
-0.481539 0.876425 0.334866
-0.475162 0.745019 0.334866
-0.394964 0.918695 0.327411
-0.388883 0.787638 0.327411
-0.428932 0.770422 0.389911
-0.262914 0.964817 0.257455
-0.304725 0.952441 0.319955
-0.299321 0.821598 0.319955
-0.345954 0.938250 0.382455
-0.386526 0.922277 0.444955
-0.381493 0.793318 0.444955
-0.333663 0.674197 0.382455
-0.375786 0.663134 0.444955
-0.371290 0.535456 0.444955
-0.338642 0.803712 0.382455
0.628099 0.610576 0.500000
0.528804 0.589530 0.375000
0.561821 0.506889 0.500000
0.316374 0.590108 0.500000
0.372942 0.579296 0.375000
0.405958 0.496655 0.500000
0.217079 0.569061 0.375000
0.306664 0.475608 0.375000
0.429510 0.568484 0.250000
0.330216 0.547437 0.125000
0.363232 0.464796 0.250000
0.495543 0.403202 0.500000
0.396248 0.382156 0.375000
0.462526 0.485843 0.375000
-0.472299 0.881439 0.069955
-0.561854 0.827239 0.132455
-0.438633 0.766112 0.194955
-0.509057 0.860733 0.209866
-0.579179 0.815202 0.202411
-0.457006 0.755759 0.264911
-0.596245 0.802802 0.272366
-0.542225 0.695215 0.327411
-0.645251 0.763971 0.194955
-0.721585 0.692338 0.257455
-0.604673 0.640173 0.319955
-0.404853 0.650590 0.319955
-0.485674 0.585195 0.382455
-0.523852 0.705568 0.257455
-0.010819 0.999944 0.311531
0.086390 0.996262 0.310562
[...]
POINT_DATA 3621 
SCALARS nodeID int
LOOKUP_TABLE default
0
1
5
7
8
18
19
23
26
27
28
36
37
38
40
45
47
51
54
55
56
60
62
117
118
119
120
121
124
127
128
130
131
137
138
139
140
141
142
143
144
145
146
147
148
149
150
151
152
153
154
155
156
157
158
159
160
161
162
163
164
165
166
167
168
169
170
171
172
173
174
175
176
177
178
179
180
181
182
183
184
185
186
187
188
189
190
191
192
193
194
195
196
197
198
199
200
201
202
203
691
692
693
694
695
698
699
700
705
706
707
708
709
710
712
713
727
728
729
730
731
734
738
739
740
741
742
743
744
745
746
753
754
755
758
759
761
768
769
770
771
772
773
774
775
776
777
778
779
780
781
782
783
784
785
786
787
788
789
790
791
792
793
794
795
796
797
798
799
800
801
802
803
804
805
806
807
808
809
810
811
812
813
814
815
816
817
818
819
820
821
822
823
824
825
826
827
828
829
830
831
832
833
834
835
836
837
838
839
840
841
842
843
844
845
846
847
848
849
850
851
852
853
854
855
856
857
858
859
860
861
862
863
864
865
866
867
868
869
870
871
872
873
874
875
876
877
878
879
880
881
882
883
884
885
886
887
888
889
890
891
892
893
894
895
896
897
898
899
900
901
902
903
904
905
906
907
908
909
910
911
912
913
914
915
916
917
918
919
920
921
922
923
924
925
926
927
928
929
930
931
932
933
934
935
936
937
938
939
940
941
942
943
944
945
946
947
948
949
950
951
952
953
954
955
956
957
958
959
960
961
962
963
964
965
966
967
968
969
970
971
972
973
974
975
976
977
978
979
980
981
982
983
984
985
986
987
988
989
990
991
992
993
994
995
996
997
998
999
1000
1001
1002
1003
1004
1005
1006
1007
1008
1009
1010
1011
1012
1013
1014
1015
1016
1017
1018
1019
1020
1021
1022
1023
1024
1025
1026
1027
1028
1029
1030
1031
1032
1033
1034
1035
1036
1037
1038
1039
1040
1041
1042
1043
1044
1045
1046
1047
1048
1049
1050
1051
1052
1053
1054
1055
1056
1057
1058
1059
1060
1061
1062
1063
1064
1065
1066
1067
1068
1069
1070
1071
1072
1073
1074
1075
1076
1077
1078
1079
1080
1081
1082
1083
1084
1085
1086
1087
1088
1089
1090
1091
1092
1093
1094
1095
1096
1097
1098
1099
1100
1101
1102
1103
1104
1105
1106
1107
1108
1109
1110
1111
1112
1113
1114
1115
1116
1117
1118
1119
1120
1121
1122
1123
1124
1125
1126
1127
1128
1129
1130
1131
1132
1133
1134
1135
1136
1137
1138
1139
1140
1141
1142
1143
1144
1145
1146
1147
1148
1149
1150
1151
1152
1153
1154
1155
1156
1157
1158
1159
1160
1161
1162
1163
1164
1165
1166
1167
1168
1169
1170
1171
1172
1173
1174
1175
1176
1177
1178
1179
1180
1181
1182
1183
1184
1185
4707
4708
4709
4710
4711
4714
4715
4716
4721
4722
4723
4724
4725
4726
4728
4729
4743
4744
4745
4746
4747
4750
4759
4760
4761
4762
4763
4764
4765
4766
4767
4768
4769
4770
4771
4772
4773
4774
4775
4776
4777
4778
4779
4780
4789
4790
4791
4792
4793
4794
4807
4808
4809
4810
4811
4812
4813
4814
4815
4816
4821
4822
4823
4824
4825
4826
4827
4828
4830
4832
4859
4860
4861
4862
4866
4867
4868
4869
4870
4871
4872
4873
4874
4878
4879
4880
4881
4882
4883
4893
4894
4895
4896
4897
4898
4899
4900
4901
4902
4903
4904
4905
4906
4909
4910
4911
4913
4944
4945
4946
4947
4948
4949
4950
4951
4952
4954
4956
4961
4965
4966
4967
4968
4969
4970
4971
4972
4973
4980
4981
4982
4986
4987
4988
4995
4996
4997
4998
4999
5000
5001
5002
5003
5004
5005
5006
5007
5008
5009
5010
5011
5012
5013
5014
5015
5016
5017
5018
5019
5020
5021
5022
5023
5024
5025
5026
5027
5028
5029
5030
5031
5032
5033
5034
5035
5036
5037
5038
5039
5040
5041
5042
5043
5044
5045
5046
5047
5048
5049
5050
5051
5052
5053
5054
5055
5056
5057
5058
5059
5060
5061
5062
5063
5064
5065
5066
5067
5068
5069
5070
5071
5072
5073
5074
5075
5076
5077
5078
5079
5080
5081
5082
5083
5084
5085
5086
5087
5088
5089
5090
5091
5092
5093
5094
5095
5096
5097
5098
5099
5100
5101
5102
5103
5104
5105
5106
5107
5108
5109
5110
5111
5112
5113
5114
5115
5116
5117
5118
5119
5120
5121
5122
5123
5124
5125
5126
5127
5128
5129
5130
5131
5132
5133
5134
5135
5136
5137
5138
5139
5140
5141
5142
5143
5144
5145
5146
5147
5148
5149
5150
5151
5152
5153
5154
5155
5156
5157
5158
5159
5160
5161
5162
5163
5164
5165
5166
5167
5168
5169
5170
5171
5172
5173
5174
5175
5176
5177
5178
5179
5180
5181
5182
5183
5184
5185
5186
5187
5188
5189
5190
5191
5192
5193
5194
5195
5196
5197
5198
5199
5200
5201
5202
5203
5204
5205
5206
5207
5208
5209
5210
5211
5212
5213
5214
5215
5216
5217
5218
5219
5220
5221
5222
5223
5224
5225
5226
5227
5228
5229
5230
5231
5232
5233
5234
5235
5236
5237
5238
5239
5240
5241
5242
5243
5244
5245
5246
5247
5248
5249
5250
5251
5252
5253
5254
5255
5256
5257
5258
5259
5260
5261
5262
5263
5264
5265
5266
5267
5268
5269
5270
5271
5272
5273
5274
5275
5276
5277
5278
5279
5280
5281
5282
5283
5284
5285
5286
5287
5288
5289
5290
5291
5292
5293
5294
5295
5296
5297
5298
5299
5300
5301
5302
5303
5304
5305
5306
5307
5308
5309
5310
5311
5312
5313
5314
5315
5316
5317
5318
5319
5320
5321
5322
5323
5324
5325
5326
5327
5328
5329
5330
5331
5332
5333
5334
5335
5336
5337
5338
5339
5340
5341
5342
5343
5344
5345
5346
5347
5348
5349
5350
5351
5352
5353
5354
5355
5356
5357
5358
5359
5360
5361
5362
5363
5364
5365
5366
5367
5368
5369
5370
5371
5372
5373
5374
5375
5376
5377
5378
5379
5380
5381
5382
5383
5384
5385
5386
5387
5388
5389
5390
5391
5392
5393
5394
5395
5396
5397
5398
5399
5400
5401
5402
5403
5404
5405
5406
5407
5408
5409
5410
5411
5412
5413
5414
5415
5416
5417
5418
5419
5420
5421
5422
5423
5424
5425
5426
5427
5428
5429
5430
5431
5432
5433
5434
5435
5436
5437
5438
5439
5440
5441
5442
5443
5444
5445
5446
5447
5448
5449
5450
5451
5452
5453
5454
5455
5456
5457
5458
5459
5460
5461
5462
5463
5464
5465
5466
5467
5468
5469
5470
5471
5472
5473
5474
5475
5476
5477
5478
5479
5480
5481
5482
5483
5484
5485
5486
5487
5488
5489
5490
5491
5492
5493
5494
5495
5496
5497
5498
5499
5500
5501
5502
5503
5504
5505
5506
5507
5508
5509
5510
5511
5512
5513
5514
5515
5516
5517
5518
5519
5520
5521
5522
5523
5524
5525
5526
5527
5528
5529
5530
5531
5532
5533
5534
5535
5536
5537
5538
5539
5540
5541
5542
5543
5544
5545
5546
5547
5548
5549
5550
5551
5552
5553
5554
5555
5556
5557
5558
5559
5560
5561
5562
5563
5564
5565
5566
5567
5568
5569
5570
5571
5572
5573
5574
5575
5576
5577
5578
5579
5580
5581
5582
5583
5584
5585
5586
5587
5588
5589
5590
5591
5592
5593
5594
5595
5596
5597
5598
5599
5600
5601
5602
5603
5604
5605
5606
5607
5608
5609
5610
5611
5612
5613
5614
5615
5616
5617
5618
5619
5620
5621
5622
5623
5624
5625
5626
5627
5628
5629
5630
5631
5632
5633
5634
5635
5636
5637
5638
5639
5640
5641
5642
5643
5644
5645
5646
5647
5648
5649
5650
5651
5652
5653
5654
5655
5656
5657
5658
5659
5660
5661
5662
5663
5664
5665
5666
5667
5668
5669
5670
5671
5672
5673
5674
5675
5676
5677
5678
5679
5680
5681
5682
5683
5684
5685
5686
5687
5688
5689
5690
5691
5692
5693
5694
5695
5696
5697
5698
5699
5700
5701
5702
5703
5704
5705
5706
5707
5708
5709
5710
5711
5712
5713
5714
5715
5716
5717
5718
5719
5720
5721
5722
5723
5724
5725
5726
5727
5728
5729
5730
5731
5732
5733
5734
5735
5736
5737
5738
5739
5740
5741
5742
5743
5744
5745
5746
5747
5748
5749
5750
5751
5752
5753
5754
5755
5756
5757
5758
5759
5760
5761
5762
5763
5764
5765
5766
5767
5768
5769
5770
5771
5772
5773
5774
5775
5776
5777
5778
5779
5780
5781
5782
5783
5784
5785
5786
5787
5788
5789
5790
5791
5792
5793
5794
5795
5796
5797
5798
5799
5800
5801
5802
5803
5804
5805
5806
5807
5808
5809
5810
5811
5812
5813
5814
5815
5816
5817
5818
5819
5820
5821
5822
5823
5824
5825
5826
5827
5828
5829
5830
5831
5832
5833
5834
5835
5836
5837
5838
5839
5840
5841
5842
5843
5844
5845
5846
5847
5848
5849
5850
5851
5852
5853
5854
5855
5856
5857
5858
5859
5860
5861
5862
5863
5864
5865
5866
5867
5868
5869
5870
5871
5872
5873
5874
5875
5876
5877
5878
5879
5880
5881
5882
5883
5884
5885
5886
5887
5888
5889
5890
5891
5892
5893
5894
5895
5896
5897
5898
5899
5900
5901
5902
5903
5904
5905
5906
5907
5908
5909
5910
5911
5912
5913
5914
5915
5916
5917
5918
5919
5920
5921
5922
5923
5924
5925
5926
5927
5928
5929
5930
5931
5932
5933
5934
5935
5936
5937
5938
5939
5940
5941
5942
5943
5944
5945
5946
5947
5948
5949
5950
5951
5952
5953
5954
5955
5956
5957
5958
5959
5960
5961
5962
5963
5964
5965
5966
5967
5968
5969
5970
5971
5972
5973
5974
5975
5976
5977
5978
5979
5980
5981
5982
5983
5984
5985
5986
5987
5988
5989
5990
5991
5992
5993
5994
5995
5996
5997
5998
5999
6000
6001
6002
6003
6004
6005
6006
6007
6008
6009
6010
6011
6012
6013
6014
6015
6016
6017
6018
6019
6020
6021
6022
6023
6024
6025
6026
6027
6028
6029
6030
6031
6032
6033
6034
6035
6036
6037
6038
6039
6040
6041
6042
6043
6044
6045
6046
6047
6048
6049
6050
6051
6052
6053
6054
6055
6056
6057
6058
6059
6060
6061
6062
6063
6064
6065
6066
6067
6068
6069
6070
6071
6072
6073
6074
6075
6076
6077
6078
6079
6080
6081
6082
6083
6084
6085
6086
6087
6088
6089
6090
6091
6092
6093
6094
6095
6096
6097
6098
6099
6100
6101
6102
6103
6104
6105
6106
6107
6108
6109
6110
6111
6112
6113
6114
6115
6116
6117
6118
6119
6120
6121
6122
6123
6124
6125
6126
6127
6128
6129
6130
6131
6132
6133
6134
6135
6136
6137
6138
6139
6140
6141
6142
6143
6144
6145
6146
6147
6148
6149
6150
6151
6152
6153
6154
6155
6156
6157
6158
6159
6160
6161
6162
6163
6164
6165
6166
6167
6168
6169
6170
6171
6172
6173
6174
6175
6176
6177
6178
6179
6180
6181
6182
6183
6184
6185
6186
6187
6188
6189
6190
6191
6192
6193
6194
6195
6196
6197
6198
6199
6200
6201
6202
6203
6204
6205
6206
6207
6208
6209
6210
6211
6212
6213
6214
6215
6216
6217
6218
6219
6220
6221
6222
6223
6224
6225
6226
6227
6228
6229
6230
6231
6232
6233
6234
6235
6236
6237
6238
6239
6240
6241
6242
6243
6244
6245
6246
6247
6248
6249
6250
6251
6252
6253
6254
6255
6256
6257
6258
6259
6260
6261
6262
6263
6264
6265
6266
6267
6268
6269
6270
6271
6272
6273
6274
6275
6276
6277
6278
6279
6280
6281
6282
6283
6284
6285
6286
6287
6288
6289
6290
6291
6292
6293
6294
6295
6296
6297
6298
6299
6300
6301
6302
6303
6304
6305
6306
6307
6308
6309
6310
6311
6312
6313
6314
6315
6316
6317
6318
6319
6320
6321
6322
6323
6324
6325
6326
6327
6328
6329
6330
6331
6332
6333
6334
6335
6336
6337
6338
6339
6340
6341
6342
6343
6344
6345
6346
6347
6348
6349
6350
6351
6352
6353
6354
6355
6356
6357
6358
6359
6360
6361
6362
6363
6364
6365
6366
6367
6368
6369
6370
6371
6372
6373
6374
6375
6376
6377
6378
6379
6380
6381
6382
6383
6384
6385
6386
6387
6388
6389
6390
6391
6392
6393
6394
6395
6396
6397
6398
6399
6400
6401
6402
6403
6404
6405
6406
6407
6408
6409
6410
6411
6412
6413
6414
6415
6416
6417
6418
6419
6420
6421
6422
6423
6424
6425
6426
6427
6428
6429
6430
6431
6432
6433
6434
6435
6436
6437
6438
6439
6440
6441
6442
6443
6444
6445
6446
6447
6448
6449
6450
6451
6452
6453
6454
6455
6456
6457
6458
6459
6460
6461
6462
6463
6464
6465
6466
6467
6468
6469
6470
6471
6472
6473
6474
6475
6476
6477
6478
6479
6480
6481
6482
6483
6484
6485
6486
6487
6488
6489
6490
6491
6492
6493
6494
6495
6496
6497
6498
6499
6500
6501
6502
6503
6504
6505
6506
6507
6508
6509
6510
6511
6512
6513
6514
6515
6516
6517
6518
6519
6520
6521
6522
6523
6524
6525
6526
6527
6528
6529
6530
6531
6532
6533
6534
6535
6536
6537
6538
6539
6540
6541
6542
6543
6544
6545
6546
6547
6548
6549
6550
6551
6552
6553
6554
6555
6556
6557
6558
6559
6560
6561
6562
6563
6564
6565
6566
6567
6568
6569
6570
6571
6572
6573
6574
6575
6576
6577
6578
6579
6580
6581
6582
6583
6584
6585
6586
6587
6588
6589
6590
6591
6592
6593
6594
6595
6596
6597
6598
6599
6600
6601
6602
6603
6604
6605
6606
6607
6608
6609
6610
6611
6612
6613
6614
6615
6616
6617
6618
6619
6620
6621
6622
6623
6624
6625
6626
6627
6628
6629
6630
6631
6632
6633
6634
6635
6636
6637
6638
6639
6640
6641
6642
6643
6644
6645
6646
6647
6648
6649
6650
6651
6652
6653
6654
6655
6656
6657
6658
6659
6660
6661
6662
6663
6664
6665
6666
6667
6668
6669
6670
6671
6672
6673
6674
6675
6676
6677
6678
6679
6680
6681
6682
6683
6684
6685
6686
6687
6688
6689
6690
6691
6692
6693
6694
6695
6696
6697
6698
6699
6700
6701
6702
6703
6704
6705
6706
6707
6708
6709
6710
6711
6712
6713
6714
6715
6716
6717
6718
6719
6720
6721
6722
6723
6724
6725
6726
6727
6728
6729
6730
6731
6732
6733
6734
6735
6736
6737
6738
6739
6740
6741
6742
6743
6744
6745
6746
6747
6748
6749
6750
6751
6752
6753
6754
6755
6756
6757
6758
6759
6760
6761
6762
6763
6764
6765
6766
6767
6768
6769
6770
6771
6772
6773
6774
6775
6776
6777
6778
6779
6780
6781
6782
6783
6784
6785
6786
6787
6788
6789
6790
6791
6792
6793
6794
6795
6796
6797
6798
6799
6800
6801
6802
6803
6804
6805
6806
6807
6808
6809
6810
6811
6812
6813
6814
6815
6816
6817
6818
6819
6820
6821
6822
6823
6824
6825
6826
6827
6828
6829
6830
6831
6832
6833
6834
6835
6836
6837
6838
6839
6840
6841
6842
6843
6844
6845
6846
6847
6848
6849
6850
6851
6852
6853
6854
6855
6856
6857
6858
6859
6860
6861
6862
6863
6864
6865
6866
6867
6868
6869
6870
6871
6872
6873
6874
6875
6876
6877
6878
6879
6880
6881
6882
6883
6884
6885
6886
6887
6888
6889
6890
6891
6892
6893
6894
6895
6896
6897
6898
6899
6900
6901
6902
6903
6904
6905
6906
6907
6908
6909
6910
6911
6912
6913
6914
6915
6916
6917
6918
6919
6920
6921
6922
6923
6924
6925
6926
6927
6928
6929
6930
6931
6932
6933
6934
6935
6936
6937
6938
6939
6940
6941
6942
6943
6944
6945
6946
6947
6948
6949
6950
6951
6952
6953
6954
6955
6956
6957
6958
6959
6960
6961
6962
6963
6964
6965
6966
6967
6968
6969
6970
6971
6972
6973
6974
6975
6976
6977
6978
6979
6980
6981
6982
6983
6984
6985
6986
6987
6988
6989
6990
6991
6992
6993
6994
6995
6996
6997
6998
6999
7000
7001
7002
7003
7004
7005
7006
7007
7008
7009
7010
7011
7012
7013
7014
7015
7016
7017
7018
7019
7020
7021
7022
7023
7024
7025
7026
7027
7028
7029
7030
7031
7032
7033
7034
7035
7036
7037
7038
7039
7040
7041
7042
7043
7044
7045
7046
7047
7048
7049
7050
7051
7052
7053
7054
7055
7056
7057
7058
7059
7060
7061
7062
7063
7064
7065
7066
7067
7068
7069
7070
7071
7072
7073
7074
7075
7076
7077
7078
7079
7080
7081
7082
7083
7084
7085
7086
7087
7088
7089
7090
7091
7092
7093
7094
7095
7096
7097
7098
7099
7100
7101
7102
7103
7104
7105
7106
7107
7108
7109
7110
7111
7112
7113
7114
7115
7116
7117
7118
7119
7120
7121
7122
7123
7124
7125
7126
7127
7128
7129
7130
7131
7132
7133
7134
7135
7136
7137
7138
7139
7140
7141
7142
7143
7144
7145
7146
7147
7148
7149
7150
7151
7152
7153
7154
7155
7156
7157
7158
7159
7160
7161
7162
7163
7164
7165
7166
7167
7168
7169
7170
7171
7172
7173
7174
7175
7176
7177
7178
7179
7180
7181
7182
7183
7184
7185
7186
7187
7188
7189
7190
7191
7192
7193
7194
7195
7196
7197
7198
7199
7200
7201
7202
7203
7204
7205
7206
7207
7208
7209
7210
7211
7212
7213
7214
7215
7216
7217
7218
7219
7220
7221
7222
7223
7224
7225
7226
7227
7228
7229
7230
7231
7232
7233
7234
7235
7236
7237
7238
7239
7240
7241
7242
7243
7244
7245
7246
7247
7248
7249
7250
7251
7252
7253
7254
7255
7256
7257
7258
7259
7260
7261
7262
7263
7264
7265
7266
7267
7268
7269
7270
7271
7272
7273
7274
7275
7276
7277
7278
7279
7280
7281
7282
7283
7284
7285
7286
7287
7288
7289
7290
7291
7292
7293
7294
7295
7296
7297
7298
7299
7300
7301
7302
7303
7304
7305
7306
7307
7308
7309
7310
7311
7312
7313
7314
7315
7316
7317
7318
7319
7320
7321
7322
7323
7324
7325
7326
7327
7328
7329
7330
7331
7332
7333
7334
7335
7336
7337
7338
7339
7340
7341
7342
7343
7344
7345
7346
7347
7348
7349
7350
7351
7352
7353
7354
7355
7356
7357
7358
7359
7360
7361
7362
7363
7364
7365
7366
7367
7368
7369
7370
7371
7372
7373
7374
7375
7376
7377
7378
7379
7380
7381
7382
7383
7384
7385
7386
7387
7388
7389
7390
7391
7392
7393
7394
7395
7396
7397
7398
7399
7400
7401
7402
7403
7404
7405
7406
7407
7408
7409
7410
7411
7412
7413
7414
7415
7416
7417
7418
7419
7420
7421
7422
7423
7424
7425
7426
7427
7428
7429
7430
7431
7432
7433
7434
7435
7436
7437
7438
7439
7440
7441
7442
7443
7444
7445
7446
7447
7448
7449
7450
7451
7452
7453
7454
7455
7456
7457
7458
7459
7460
7461
7462
7463
7464
7465
7466
7467
7468
7469
7470
7471
7472
7473
7474
7475
7476
7477
7478
7479
7480
7481
7482
7483
7484
7485
7486
7487
7488
7489
7490
7491
7492
7493
7494
7495
7496
7497
7498
7499
7500
7501
7502
7503
7504
7505
7506
7507
7508
7509
7510
7511
7512
7513
7514
7515
7516
7517
7518
7519
7520
7521
7522
7523
7524
7525
7526
7527
7528
7529
7530
7531
7532
7533
7534
7535
7536
7537
7538
7539
7540
7541
7542
7543
7544
7545
7546
7547
7548
7549
7550
7551
7552
7553
7554
7555
7556
7557
7558
7559
7560
7561
7562
7563
7564
7565
7566
7567
7568
7569
7570
7571
7572
7573
7574
7575
7576
7577
7578
7579
7580
7581
7582
7583
7584
7585
7586
7587
7588
7589
7590
7591
7592
7593
7594
7595
7596
7597
7598
7599
7600
7601
7602
7603
7604
7605
7606
7607
7608
7609
7610
7611
7612
7613
7614
7615
7616
7617
7618
7619
7620
7621
7622
7623
7624
7625
7626
7627
7628
7629
7630
7631
7632
7633
7634
7635
7636
7637
7638
7639
7640
7641
7642
7643
7644
7645
7646
7647
7648
7649
7650
7651
7652
7653
7654
7655
7656
7657
7658
7659
7660
7661
7662
7663
7664
7665
7666
7667
7668
7669
7670
7671
7672
7673
7674
7675
7676
7677
7678
7679
7680
7681
7682
7683
7684
7685
7686
7687
7688
7689
7690
7691
7692
7693
7694
7695
7696
7697
7698
7699
7700
7701
7702
7703
7704
7705
7706
7707
7708
7709
7710
7711
7712
7713
7714
7715
7716
7717
7718
7719
7720
7721
7722
7723
7724
7725
7726
7727
7728
7729
7730
7731
7732
7733
7734
7735
7736
7737
7738
7739
7740
7741
7742
7743
7744
7745
7746
7747
7748
7749
7750
7751
7752
7753
7754
7755
7756
7757
7758
7759
7760
7761
7762
7763
7764
7765
7766
7767
7768
7769
7770
7771
7772
7773
7774
7775
7776
7777
7778
7779
7780
7781
7782
7783
7784
7785
7786
7787
7788
7789
7790
7791
7792
7793
7794
7795
7796
7797
7798
7799
7800
7801
7802
7803
7804
7805
7806
7807
7808
7809
7810
7811
7812
7813
7814
7815
7816
7817
7818
7819
7820
7821
7822
7823
7824
7825
7826
7827
7828
7829
7830
7831
7832
7833
7834
7835
7836
7837
7838
7839
7840
7841
7842
7843
7844
7845
7846
7847
7848
7849
7850
7851
7852
7853
7854
7855
7856
7857
7858
7859
7860
7861
7862
7863
7864
7865
7866
7867
7868
7869
7870
7871
7872
7873
7874
7875
7876
7877
7878
7879
7880
7881
7882
7883
7884
7885
7886
7887
7888
7889
7890
7891
7892
7893
7894
7895
7896
7897
7898
7899
7900
7901
7902
7903
7904
7905
7906
7907
7908
7909
7910
7911
7912
7913
7914
7915
7916
7917
7918
7919
7920
7921
7922
7923
7924
7925
7926

CELL_DATA 2688 
SCALARS iOppoProc int
LOOKUP_TABLE default
-1
-1
-1
-1
-1
-1
-1
-1
-1
-1
-1
-1
-1
-1
-1
-1
-1
-1
-1
-1
-1
-1
-1
-1
-1
-1
-1
-1
-1
-1
-1
-1
-1
-1
-1
-1
-1
-1
-1
-1
-1
-1
-1
-1
-1
-1
-1
-1
-1
-1
-1
-1
-1
-1
-1
-1
-1
-1
-1
-1
-1
-1
-1
-1
-1
-1
-1
-1
-1
-1
-1
-1
-1
-1
-1
-1
-1
-1
-1
-1
-1
-1
-1
-1
-1
-1
-1
-1
-1
-1
-1
-1
-1
-1
-1
-1
-1
-1
-1
-1
-1
-1
-1
-1
-1
-1
-1
-1
-1
-1
-1
-1
-1
-1
-1
-1
-1
-1
-1
-1
-1
-1
-1
-1
-1
-1
-1
-1
-1
-1
-1
-1
-1
-1
-1
-1
-1
-1
-1
-1
-1
-1
-1
-1
-1
-1
-1
-1
-1
-1
-1
-1
-1
-1
-1
-1
-1
-1
-1
-1
-1
-1
-1
-1
-1
-1
-1
-1
-1
-1
-1
-1
-1
-1
-1
-1
-1
-1
-1
-1
-1
-1
-1
-1
-1
-1
-1
-1
-1
-1
-1
-1
-1
-1
-1
-1
-1
-1
-1
-1
-1
-1
-1
-1
-1
-1
-1
-1
-1
-1
-1
-1
-1
-1
-1
-1
-1
-1
-1
-1
-1
-1
-1
-1
-1
-1
-1
-1
-1
-1
-1
-1
-1
-1
-1
-1
-1
-1
-1
-1
-1
-1
-1
-1
-1
-1
-1
-1
-1
-1
-1
-1
-1
-1
-1
-1
-1
-1
-1
-1
-1
-1
-1
-1
-1
-1
-1
-1
-1
-1
-1
-1
-1
-1
-1
-1
-1
-1
-1
-1
-1
-1
-1
-1
-1
-1
-1
-1
-1
-1
-1
-1
-1
-1
-1
-1
-1
-1
-1
-1
-1
-1
-1
-1
-1
-1
-1
-1
-1
-1
-1
-1
-1
-1
-1
-1
-1
-1
-1
-1
-1
-1
-1
-1
-1
-1
-1
-1
-1
-1
-1
-1
-1
-1
-1
-1
-1
-1
-1
-1
-1
-1
-1
-1
-1
-1
-1
-1
-1
-1
-1
-1
-1
-1
-1
-1
-1
-1
-1
-1
-1
-1
-1
-1
-1
-1
-1
-1
-1
-1
-1
-1
-1
-1
-1
-1
-1
-1
-1
-1
-1
-1
-1
-1
-1
-1
-1
-1
-1
-1
-1
-1
-1
-1
-1
-1
-1
-1
-1
-1
-1
-1
-1
-1
-1
-1
-1
-1
-1
-1
-1
-1
-1
-1
-1
-1
-1
-1
-1
-1
-1
-1
-1
-1
-1
-1
-1
-1
-1
-1
-1
-1
-1
-1
-1
-1
-1
-1
-1
-1
-1
-1
-1
-1
-1
-1
-1
-1
-1
-1
-1
-1
-1
-1
-1
-1
-1
-1
-1
-1
-1
-1
-1
-1
-1
-1
-1
-1
-1
-1
-1
-1
-1
-1
-1
-1
-1
-1
-1
-1
-1
-1
-1
-1
-1
-1
-1
-1
-1
-1
-1
-1
-1
-1
-1
-1
-1
-1
-1
-1
-1
-1
-1
-1
-1
-1
-1
-1
-1
-1
-1
-1
-1
-1
-1
-1
-1
-1
-1
-1
-1
-1
-1
-1
-1
-1
-1
-1
-1
-1
-1
-1
-1
-1
-1
-1
-1
-1
-1
-1
-1
-1
-1
-1
-1
-1
-1
-1
-1
-1
-1
-1
-1
-1
-1
-1
-1
-1
-1
-1
-1
-1
-1
-1
-1
-1
-1
-1
-1
-1
-1
-1
-1
-1
-1
-1
-1
-1
-1
-1
-1
-1
-1
-1
-1
-1
-1
-1
-1
-1
-1
-1
-1
-1
-1
-1
-1
-1
-1
-1
-1
-1
-1
-1
-1
-1
-1
-1
-1
-1
-1
-1
-1
-1
-1
-1
-1
-1
-1
-1
-1
-1
-1
-1
-1
-1
-1
-1
-1
-1
-1
-1
-1
-1
-1
-1
-1
-1
-1
-1
-1
-1
-1
-1
-1
-1
-1
-1
-1
-1
-1
-1
-1
-1
-1
-1
-1
-1
-1
-1
-1
-1
-1
-1
-1
-1
-1
-1
-1
-1
-1
-1
-1
-1
-1
-1
-1
-1
-1
-1
-1
-1
-1
-1
-1
-1
-1
-1
-1
-1
-1
-1
-1
-1
-1
-1
-1
-1
-1
-1
-1
-1
-1
-1
-1
-1
-1
-1
-1
-1
-1
-1
-1
-1
-1
-1
-1
-1
-1
-1
-1
-1
-1
-1
-1