# vtk DataFile Version 2.0
background mesh
ASCII
DATASET UNSTRUCTURED_GRID
POINTS 3657 double
0.707120 -0.707120 0.500000
-0.447221 -0.894450 0.500000
-0.447221 -0.894450 0.000000
-0.707117 -0.707127 0.000000
-0.050855 -0.998713 0.500000
0.364615 -0.931172 0.500000
0.835288 -0.549797 0.000000
0.453162 -0.891451 0.000000
-0.001504 -1.000007 0.000000
-0.921766 -0.387748 0.000000
-0.791961 -0.610573 0.500000
0.891235 -0.453578 0.248806
0.598029 -0.801495 0.247212
0.231170 -0.972935 0.247442
-0.254379 -0.967250 0.250000
-0.864088 -0.503370 0.250000
-0.630588 -0.776233 0.257580
-0.392019 -0.552161 0.000000
0.135043 -0.565488 0.000000
0.308410 -0.226389 0.000000
-0.141785 -0.119495 0.000000
-0.397323 -0.482590 0.500000
0.087545 -0.538433 0.500000
-0.046372 -0.041349 0.500000
0.809158 -0.587598 0.374403
0.397333 -0.622776 0.500000
0.864625 -0.502480 0.124403
0.571849 -0.388093 0.000000
0.599822 -0.339984 0.124403
0.489390 -0.496006 0.374403
0.083312 -0.172942 0.000000
0.197977 -0.382411 0.250000
-0.027120 -0.328964 0.250000
-0.094078 -0.080422 0.250000
0.020586 -0.289891 0.500000
-0.325851 -0.724920 0.375000
-0.422272 -0.688520 0.250000
-0.199414 -0.741299 0.250000
-0.352657 -0.935619 0.125000
-0.128990 -0.991644 0.125000
-0.230431 -0.973144 -0.000000
-0.759665 -0.650357 0.253790
-0.716039 -0.698054 0.378790
-0.513956 -0.629412 0.378790
0.485673 -0.874163 0.373606
0.654278 -0.756278 0.373606
0.342787 -0.669964 0.373606
0.547455 -0.836860 0.500000
0.226080 -0.734802 0.500000
0.042094 -0.782100 0.250000
0.091076 -0.995863 0.373721
-0.026188 -0.999688 0.250000
0.183106 -0.769212 0.123721
0.066769 -0.782748 0.000000
0.115629 -0.993312 0.123721
-0.542017 -0.840277 0.378790
-0.635730 -0.772003 0.500000
-0.422272 -0.688520 0.500000
-0.511303 -0.664197 0.128790
0.344584 -0.938778 0.123721
0.527517 -0.849568 0.123606
0.294103 -0.728470 0.000000
0.423368 -0.905981 0.247327
0.366536 -0.683491 0.123606
-0.669699 -0.742617 0.128790
-0.792188 -0.610321 0.125000
-0.549568 -0.629644 0.000000
-0.584809 -0.811402 0.000000
-0.542017 -0.840277 0.128790
-0.419620 -0.723306 0.000000
-0.003371 -0.342491 0.000000
-0.128488 -0.558825 0.000000
-0.131140 -0.524039 0.250000
0.111294 -0.551960 0.250000
0.018345 -0.768573 0.500000
-0.224089 -0.740651 0.500000
-0.154889 -0.510512 0.500000
-0.196762 -0.776084 0.000000
0.221726 -0.395939 0.000000
0.764686 -0.644427 0.248009
0.453220 -0.513942 0.123606
0.159357 -0.755684 0.373721
0.485165 -0.557643 0.000000
0.727637 -0.685996 0.123606
0.666493 -0.745537 0.000000
-0.153421 -0.988146 0.375000
-0.254408 -0.967221 0.500000
-0.352657 -0.935619 0.375000
0.298625 -0.954394 0.373721
-0.829957 -0.557863 0.000000
0.160474 -0.987063 0.500000
0.232264 -0.972674 0.000000
-0.447189 -0.894381 0.250000
-0.894806 -0.446497 0.125000
-0.656893 -0.469954 0.000000
-0.829768 -0.558144 0.375000
-0.594642 -0.546581 0.500000
-0.628054 -0.527765 0.125000
-0.630706 -0.492980 0.375000
-0.266902 -0.335828 0.000000
-0.394671 -0.517375 0.250000
-0.269554 -0.301042 0.250000
-0.221848 -0.261969 0.500000
0.760495 -0.649370 0.437201
0.552226 -0.664948 0.500000
0.850301 -0.526352 0.062201
0.703569 -0.468945 0.000000
0.852850 -0.522214 0.311604
0.878271 -0.478214 0.186604
0.745529 -0.396781 0.186604
0.690312 -0.474792 0.311604
0.440130 -0.307241 0.000000
0.454116 -0.283186 0.062201
0.195861 -0.199665 0.000000
0.253194 -0.304400 0.125000
-0.029236 -0.146218 0.000000
-0.084452 -0.224230 0.125000
-0.117932 -0.099958 0.125000
0.242439 -0.580605 0.500000
0.288467 -0.517219 0.437201
0.142761 -0.460422 0.375000
0.030213 -0.433699 0.375000
0.054066 -0.414162 0.500000
-0.070225 -0.060886 0.375000
-0.012893 -0.165620 0.500000
0.603245 -0.605187 0.437201
0.649274 -0.541802 0.374403
0.443361 -0.559391 0.437201
0.718237 -0.445286 0.062201
0.732224 -0.421232 0.124403
0.585836 -0.364038 0.062201
0.544606 -0.417995 0.249403
0.398900 -0.361197 0.187201
0.343684 -0.439208 0.312201
0.140645 -0.277676 0.125000
0.028096 -0.250953 0.125000
0.085429 -0.355688 0.250000
-0.060599 -0.204693 0.250000
-0.003267 -0.309428 0.375000
-0.036746 -0.185157 0.375000
-0.361587 -0.603755 0.437500
-0.409798 -0.585555 0.375000
-0.298368 -0.611944 0.375000
-0.374062 -0.706720 0.312500
-0.262632 -0.733109 0.312500
-0.310843 -0.714909 0.250000
-0.290115 -0.846085 0.312500
-0.339254 -0.830270 0.250000
-0.227420 -0.858282 0.250000
-0.303979 -0.952873 0.187500
-0.192060 -0.981372 0.187500
-0.242458 -0.970251 0.125000
-0.387465 -0.812070 0.187500
-0.434747 -0.791485 0.125000
-0.326351 -0.830832 0.125000
-0.400242 -0.915724 0.062500
-0.292207 -0.956554 0.062500
-0.341144 -0.940011 -0.000000
-0.164202 -0.866471 0.187500
-0.214922 -0.857221 0.125000
-0.100459 -0.870653 0.125000
-0.179941 -0.983660 0.062500
-0.065382 -0.997891 0.062500
-0.116747 -0.993169 -0.000000
-0.276035 -0.838459 0.187500
-0.697913 -0.716157 0.255685
-0.674407 -0.738339 0.318185
-0.572272 -0.702822 0.318185
-0.738241 -0.674562 0.316290
-0.636810 -0.639884 0.316290
-0.614997 -0.663733 0.378790
-0.815197 -0.579223 0.251895
-0.796054 -0.605268 0.314395
-0.695185 -0.571669 0.314395
-0.776080 -0.630680 0.376895
-0.755289 -0.655432 0.439395
-0.655340 -0.622318 0.439395
-0.572331 -0.561196 0.376895
-0.554299 -0.587996 0.439395
-0.455639 -0.556001 0.439395
-0.671862 -0.593778 0.376895
0.543069 -0.839713 0.310409
0.626561 -0.779393 0.310409
0.470408 -0.735730 0.310409
0.573016 -0.819568 0.373606
0.414230 -0.772064 0.373606
0.498533 -0.713121 0.373606
0.426100 -0.904699 0.436803
0.516900 -0.856069 0.436803
0.355876 -0.804483 0.436803
0.458469 -0.888734 0.500000
0.295347 -0.832987 0.500000
0.386767 -0.785831 0.500000
0.602214 -0.798355 0.436803
0.681145 -0.732178 0.436803
0.525805 -0.689527 0.436803
0.630630 -0.776104 0.500000
0.472394 -0.729818 0.500000
0.284434 -0.702383 0.436803
0.370060 -0.646370 0.436803
0.215166 -0.604199 0.436803
0.311706 -0.678789 0.500000
0.156812 -0.636618 0.500000
0.445121 -0.753412 0.436803
-0.004381 -0.890407 0.375000
0.020162 -0.999823 0.436861
-0.038525 -0.999289 0.375000
0.066585 -0.888982 0.311861
0.007953 -0.890894 0.250000
0.032500 -0.999497 0.311861
0.088568 -0.673794 0.125000
0.112600 -0.775656 0.186861
0.054432 -0.782424 0.125000
0.159075 -0.667350 0.061861
0.100906 -0.674118 0.000000
0.124938 -0.775980 0.061861
0.137091 -0.882537 0.248721
0.161531 -0.986890 0.310582
0.103360 -0.994663 0.248721
0.207138 -0.871073 0.185582
0.149368 -0.881262 0.123721
0.173699 -0.984822 0.185582
0.020291 -0.891218 0.125000
0.044834 -0.999018 0.186861
-0.013847 -0.999934 0.125000
0.091199 -0.888030 0.061861
0.032633 -0.891378 0.000000
0.057162 -0.998387 0.061861
0.078459 -0.884450 0.186861
-0.587287 -0.809613 0.318185
-0.633128 -0.774151 0.378790
-0.527986 -0.734844 0.378790
-0.676860 -0.736088 0.439395
-0.718361 -0.695667 0.500000
-0.615186 -0.659292 0.500000
-0.589979 -0.807653 0.439395
-0.495060 -0.868143 0.439395
-0.482145 -0.764399 0.439395
-0.544828 -0.838498 0.500000
-0.529001 -0.730262 0.500000
-0.434747 -0.791485 0.500000
-0.468114 -0.658966 0.439395
-0.508457 -0.617551 0.500000
-0.409798 -0.585555 0.500000
-0.574843 -0.700707 0.439395
-0.451661 -0.608179 0.064395
-0.569679 -0.595981 0.126895
-0.452987 -0.590786 0.189395
-0.693859 -0.589061 0.189395
-0.635484 -0.657277 0.191290
-0.570946 -0.720215 0.193185
-0.512630 -0.646804 0.253790
-0.454313 -0.573393 0.314395
-0.577168 -0.583866 0.251895
0.399574 -0.916722 0.061861
0.490786 -0.871302 0.061803
0.373632 -0.809960 0.000000
0.438326 -0.898840 0.123663
0.319343 -0.833624 0.061861
0.410810 -0.789019 0.061803
0.288383 -0.957538 0.185582
0.384325 -0.923219 0.185524
0.263845 -0.853995 0.123721
0.328977 -0.944361 0.247385
0.303237 -0.837596 0.185524
0.476278 -0.879318 0.185466
0.563287 -0.826286 0.185409
0.447027 -0.766530 0.123606
0.513364 -0.858194 0.247269
0.394952 -0.794736 0.185466
0.482283 -0.742493 0.185409
0.238605 -0.748841 0.061861
0.330319 -0.705981 0.061803
0.214573 -0.646979 0.000000
0.274821 -0.726351 0.123663
0.250790 -0.624490 0.061803
0.358735 -0.817225 0.123663
-0.650351 -0.759667 0.193185
-0.716160 -0.697929 0.191290
-0.590501 -0.703407 0.128790
-0.688619 -0.725094 0.064395
-0.733934 -0.679240 0.126895
-0.609634 -0.686131 0.064395
-0.751214 -0.660097 0.062500
-0.628343 -0.668386 0.000000
-0.670878 -0.619982 0.062500
-0.776186 -0.630550 0.189395
-0.829862 -0.558004 0.187500
-0.710121 -0.569043 0.125000
-0.530436 -0.646921 0.064395
-0.588811 -0.578705 0.062500
-0.470794 -0.590903 0.000000
-0.651746 -0.637259 0.126895
-0.648017 -0.761668 0.000000
-0.628201 -0.778177 0.064395
-0.567189 -0.720523 0.000000
-0.607956 -0.794176 0.128790
-0.587287 -0.809613 0.193185
-0.526660 -0.752237 0.128790
-0.563636 -0.826171 0.064395
-0.517399 -0.855272 0.000000
-0.502215 -0.767354 0.000000
-0.495060 -0.868143 0.064395
-0.480819 -0.781791 0.064395
-0.433421 -0.808878 0.000000
-0.484594 -0.676475 0.000000
-0.465462 -0.693751 0.064395
-0.405820 -0.637733 0.000000
-0.545793 -0.734961 0.064395
0.065836 -0.453990 0.000000
0.003277 -0.562156 0.000000
0.001951 -0.544763 0.125000
-0.065930 -0.450658 0.000000
-0.067256 -0.433265 0.125000
-0.129814 -0.541432 0.125000
-0.072578 -0.230993 0.000000
-0.135136 -0.339160 0.000000
-0.136463 -0.321767 0.125000
-0.197695 -0.447326 0.000000
-0.260254 -0.555493 0.000000
-0.261580 -0.538100 0.125000
-0.200347 -0.412541 0.250000
-0.262906 -0.520707 0.250000
-0.264232 -0.503314 0.375000
-0.199021 -0.429933 0.125000
0.123168 -0.558724 0.125000
0.076694 -0.667030 0.250000
-0.044523 -0.653070 0.250000
-0.009923 -0.538000 0.250000
0.030219 -0.775337 0.375000
-0.090998 -0.761376 0.375000
-0.016255 -0.883643 0.500000
-0.137472 -0.869682 0.500000
-0.102872 -0.754612 0.500000
0.064819 -0.660267 0.375000
0.099419 -0.545197 0.375000
-0.021798 -0.531236 0.375000
0.052945 -0.653503 0.500000
-0.068272 -0.639542 0.500000
-0.033672 -0.524472 0.500000
-0.177615 -0.632345 0.375000
-0.143015 -0.517275 0.375000
-0.189489 -0.625581 0.500000
-0.310706 -0.611621 0.500000
-0.276106 -0.496551 0.500000
-0.056398 -0.646306 0.375000
[...]
POINT_DATA 3657 
SCALARS nodeID int
LOOKUP_TABLE default
2
3
4
6
11
12
15
16
17
22
25
31
33
34
35
43
44
46
48
52
53
57
58
62
115
116
122
123
125
126
132
133
134
135
136
204
205
206
207
208
209
210
211
212
213
214
215
216
217
218
219
220
221
222
223
224
225
226
227
228
229
230
231
232
233
234
235
236
237
238
239
240
241
242
243
244
245
246
247
248
249
250
251
252
253
254
255
256
257
258
259
260
261
262
263
264
265
266
267
268
269
270
271
689
690
696
697
701
702
703
704
714
715
716
717
719
720
721
722
723
724
725
726
732
733
735
736
737
747
748
749
750
751
752
762
763
764
765
766
767
1186
1187
1188
1189
1190
1191
1192
1193
1194
1195
1196
1197
1198
1199
1200
1201
1202
1203
1204
1205
1206
1207
1208
1209
1210
1211
1212
1213
1214
1215
1216
1217
1218
1219
1220
1221
1222
1223
1224
1225
1226
1227
1228
1229
1230
1231
1232
1233
1234
1235
1236
1237
1238
1239
1240
1241
1242
1243
1244
1245
1246
1247
1248
1249
1250
1251
1252
1253
1254
1255
1256
1257
1258
1259
1260
1261
1262
1263
1264
1265
1266
1267
1268
1269
1270
1271
1272
1273
1274
1275
1276
1277
1278
1279
1280
1281
1282
1283
1284
1285
1286
1287
1288
1289
1290
1291
1292
1293
1294
1295
1296
1297
1298
1299
1300
1301
1302
1303
1304
1305
1306
1307
1308
1309
1310
1311
1312
1313
1314
1315
1316
1317
1318
1319
1320
1321
1322
1323
1324
1325
1326
1327
1328
1329
1330
1331
1332
1333
1334
1335
1336
1337
1338
1339
1340
1341
1342
1343
1344
1345
1346
1347
1348
1349
1350
1351
1352
1353
1354
1355
1356
1357
1358
1359
1360
1361
1362
1363
1364
1365
1366
1367
1368
1369
1370
1371
1372
1373
1374
1375
1376
1377
1378
1379
1380
1381
1382
1383
1384
1385
1386
1387
1388
1389
1390
1391
1392
1393
1394
1395
1396
1397
1398
1399
1400
1401
1402
1403
1404
1405
1406
1407
1408
1409
1410
1411
1412
1413
1414
1415
1416
1417
1418
1419
1420
1421
1422
1423
1424
1425
1426
1427
1428
1429
1430
1431
1432
1433
1434
1435
1436
1437
1438
1439
1440
1441
1442
1443
1444
1445
1446
1447
1448
1449
1450
1451
1452
1453
1454
1455
1456
1457
1458
1459
1460
1461
1462
1463
1464
1465
1466
1467
1468
1469
1470
1471
1472
1473
1474
1475
1476
1477
1478
1479
1480
1481
1482
1483
1484
1485
1486
1487
1488
1489
1490
1491
1492
1493
1494
1495
1496
1497
1498
1499
1500
1501
1502
1503
1504
1505
1506
1507
1508
1509
1510
1511
1512
1513
1514
1515
1516
1517
1518
1519
1520
1521
1522
1523
1524
1525
1526
1527
1528
1529
1530
1531
1532
1533
1534
1535
1536
1537
1538
1539
1540
1541
1542
1543
1544
1545
1546
1547
1548
1549
1550
1551
1552
1553
1554
1555
1556
1557
1558
1559
1560
1561
1562
1563
1564
1565
1566
1567
1568
1569
1570
1571
1572
1573
1574
1575
1576
1577
1578
1579
1580
1581
1582
1583
1584
1585
1586
1587
1588
1589
1590
1591
1592
1593
1594
1595
1596
1597
1598
1599
1600
1601
1602
1603
1604
1605
1606
1607
1608
1609
1610
4705
4706
4712
4713
4717
4718
4719
4720
4730
4731
4732
4733
4735
4736
4737
4738
4739
4740
4741
4742
4748
4749
4751
4752
4753
4754
4755
4756
4757
4758
4781
4782
4783
4784
4785
4786
4787
4788
4795
4796
4797
4798
4799
4800
4801
4802
4803
4804
4805
4806
4833
4834
4835
4836
4837
4838
4839
4840
4841
4842
4843
4844
4845
4846
4847
4848
4849
4850
4853
4854
4855
4856
4857
4858
4863
4864
4865
4875
4876
4877
4884
4885
4886
4887
4888
4889
4890
4891
4892
4914
4915
4916
4917
4918
4919
4920
4921
4922
4925
4926
4927
4928
4929
4931
4932
4933
4934
4935
4936
4937
4938
4939
4940
4941
4942
4943
4957
4959
4960
4962
4963
4964
4974
4975
4976
4977
4978
4979
4989
4990
4991
4992
4993
4994
7927
7928
7929
7930
7931
7932
7933
7934
7935
7936
7937
7938
7939
7940
7941
7942
7943
7944
7945
7946
7947
7948
7949
7950
7951
7952
7953
7954
7955
7956
7957
7958
7959
7960
7961
7962
7963
7964
7965
7966
7967
7968
7969
7970
7971
7972
7973
7974
7975
7976
7977
7978
7979
7980
7981
7982
7983
7984
7985
7986
7987
7988
7989
7990
7991
7992
7993
7994
7995
7996
7997
7998
7999
8000
8001
8002
8003
8004
8005
8006
8007
8008
8009
8010
8011
8012
8013
8014
8015
8016
8017
8018
8019
8020
8021
8022
8023
8024
8025
8026
8027
8028
8029
8030
8031
8032
8033
8034
8035
8036
8037
8038
8039
8040
8041
8042
8043
8044
8045
8046
8047
8048
8049
8050
8051
8052
8053
8054
8055
8056
8057
8058
8059
8060
8061
8062
8063
8064
8065
8066
8067
8068
8069
8070
8071
8072
8073
8074
8075
8076
8077
8078
8079
8080
8081
8082
8083
8084
8085
8086
8087
8088
8089
8090
8091
8092
8093
8094
8095
8096
8097
8098
8099
8100
8101
8102
8103
8104
8105
8106
8107
8108
8109
8110
8111
8112
8113
8114
8115
8116
8117
8118
8119
8120
8121
8122
8123
8124
8125
8126
8127
8128
8129
8130
8131
8132
8133
8134
8135
8136
8137
8138
8139
8140
8141
8142
8143
8144
8145
8146
8147
8148
8149
8150
8151
8152
8153
8154
8155
8156
8157
8158
8159
8160
8161
8162
8163
8164
8165
8166
8167
8168
8169
8170
8171
8172
8173
8174
8175
8176
8177
8178
8179
8180
8181
8182
8183
8184
8185
8186
8187
8188
8189
8190
8191
8192
8193
8194
8195
8196
8197
8198
8199
8200
8201
8202
8203
8204
8205
8206
8207
8208
8209
8210
8211
8212
8213
8214
8215
8216
8217
8218
8219
8220
8221
8222
8223
8224
8225
8226
8227
8228
8229
8230
8231
8232
8233
8234
8235
8236
8237
8238
8239
8240
8241
8242
8243
8244
8245
8246
8247
8248
8249
8250
8251
8252
8253
8254
8255
8256
8257
8258
8259
8260
8261
8262
8263
8264
8265
8266
8267
8268
8269
8270
8271
8272
8273
8274
8275
8276
8277
8278
8279
8280
8281
8282
8283
8284
8285
8286
8287
8288
8289
8290
8291
8292
8293
8294
8295
8296
8297
8298
8299
8300
8301
8302
8303
8304
8305
8306
8307
8308
8309
8310
8311
8312
8313
8314
8315
8316
8317
8318
8319
8320
8321
8322
8323
8324
8325
8326
8327
8328
8329
8330
8331
8332
8333
8334
8335
8336
8337
8338
8339
8340
8341
8342
8343
8344
8345
8346
8347
8348
8349
8350
8351
8352
8353
8354
8355
8356
8357
8358
8359
8360
8361
8362
8363
8364
8365
8366
8367
8368
8369
8370
8371
8372
8373
8374
8375
8376
8377
8378
8379
8380
8381
8382
8383
8384
8385
8386
8387
8388
8389
8390
8391
8392
8393
8394
8395
8396
8397
8398
8399
8400
8401
8402
8403
8404
8405
8406
8407
8408
8409
8410
8411
8412
8413
8414
8415
8416
8417
8418
8419
8420
8421
8422
8423
8424
8425
8426
8427
8428
8429
8430
8431
8432
8433
8434
8435
8436
8437
8438
8439
8440
8441
8442
8443
8444
8445
8446
8447
8448
8449
8450
8451
8452
8453
8454
8455
8456
8457
8458
8459
8460
8461
8462
8463
8464
8465
8466
8467
8468
8469
8470
8471
8472
8473
8474
8475
8476
8477
8478
8479
8480
8481
8482
8483
8484
8485
8486
8487
8488
8489
8490
8491
8492
8493
8494
8495
8496
8497
8498
8499
8500
8501
8502
8503
8504
8505
8506
8507
8508
8509
8510
8511
8512
8513
8514
8515
8516
8517
8518
8519
8520
8521
8522
8523
8524
8525
8526
8527
8528
8529
8530
8531
8532
8533
8534
8535
8536
8537
8538
8539
8540
8541
8542
8543
8544
8545
8546
8547
8548
8549
8550
8551
8552
8553
8554
8555
8556
8557
8558
8559
8560
8561
8562
8563
8564
8565
8566
8567
8568
8569
8570
8571
8572
8573
8574
8575
8576
8577
8578
8579
8580
8581
8582
8583
8584
8585
8586
8587
8588
8589
8590
8591
8592
8593
8594
8595
8596
8597
8598
8599
8600
8601
8602
8603
8604
8605
8606
8607
8608
8609
8610
8611
8612
8613
8614
8615
8616
8617
8618
8619
8620
8621
8622
8623
8624
8625
8626
8627
8628
8629
8630
8631
8632
8633
8634
8635
8636
8637
8638
8639
8640
8641
8642
8643
8644
8645
8646
8647
8648
8649
8650
8651
8652
8653
8654
8655
8656
8657
8658
8659
8660
8661
8662
8663
8664
8665
8666
8667
8668
8669
8670
8671
8672
8673
8674
8675
8676
8677
8678
8679
8680
8681
8682
8683
8684
8685
8686
8687
8688
8689
8690
8691
8692
8693
8694
8695
8696
8697
8698
8699
8700
8701
8702
8703
8704
8705
8706
8707
8708
8709
8710
8711
8712
8713
8714
8715
8716
8717
8718
8719
8720
8721
8722
8723
8724
8725
8726
8727
8728
8729
8730
8731
8732
8733
8734
8735
8736
8737
8738
8739
8740
8741
8742
8743
8744
8745
8746
8747
8748
8749
8750
8751
8752
8753
8754
8755
8756
8757
8758
8759
8760
8761
8762
8763
8764
8765
8766
8767
8768
8769
8770
8771
8772
8773
8774
8775
8776
8777
8778
8779
8780
8781
8782
8783
8784
8785
8786
8787
8788
8789
8790
8791
8792
8793
8794
8795
8796
8797
8798
8799
8800
8801
8802
8803
8804
8805
8806
8807
8808
8809
8810
8811
8812
8813
8814
8815
8816
8817
8818
8819
8820
8821
8822
8823
8824
8825
8826
8827
8828
8829
8830
8831
8832
8833
8834
8835
8836
8837
8838
8839
8840
8841
8842
8843
8844
8845
8846
8847
8848
8849
8850
8851
8852
8853
8854
8855
8856
8857
8858
8859
8860
8861
8862
8863
8864
8865
8866
8867
8868
8869
8870
8871
8872
8873
8874
8875
8876
8877
8878
8879
8880
8881
8882
8883
8884
8885
8886
8887
8888
8889
8890
8891
8892
8893
8894
8895
8896
8897
8898
8899
8900
8901
8902
8903
8904
8905
8906
8907
8908
8909
8910
8911
8912
8913
8914
8915
8916
8917
8918
8919
8920
8921
8922
8923
8924
8925
8926
8927
8928
8929
8930
8931
8932
8933
8934
8935
8936
8937
8938
8939
8940
8941
8942
8943
8944
8945
8946
8947
8948
8949
8950
8951
8952
8953
8954
8955
8956
8957
8958
8959
8960
8961
8962
8963
8964
8965
8966
8967
8968
8969
8970
8971
8972
8973
8974
8975
8976
8977
8978
8979
8980
8981
8982
8983
8984
8985
8986
8987
8988
8989
8990
8991
8992
8993
8994
8995
8996
8997
8998
8999
9000
9001
9002
9003
9004
9005
9006
9007
9008
9009
9010
9011
9012
9013
9014
9015
9016
9017
9018
9019
9020
9021
9022
9023
9024
9025
9026
9027
9028
9029
9030
9031
9032
9033
9034
9035
9036
9037
9038
9039
9040
9041
9042
9043
9044
9045
9046
9047
9048
9049
9050
9051
9052
9053
9054
9055
9056
9057
9058
9059
9060
9061
9062
9063
9064
9065
9066
9067
9068
9069
9070
9071
9072
9073
9074
9075
9076
9077
9078
9079
9080
9081
9082
9083
9084
9085
9086
9087
9088
9089
9090
9091
9092
9093
9094
9095
9096
9097
9098
9099
9100
9101
9102
9103
9104
9105
9106
9107
9108
9109
9110
9111
9112
9113
9114
9115
9116
9117
9118
9119
9120
9121
9122
9123
9124
9125
9126
9127
9128
9129
9130
9131
9132
9133
9134
9135
9136
9137
9138
9139
9140
9141
9142
9143
9144
9145
9146
9147
9148
9149
9150
9151
9152
9153
9154
9155
9156
9157
9158
9159
9160
9161
9162
9163
9164
9165
9166
9167
9168
9169
9170
9171
9172
9173
9174
9175
9176
9177
9178
9179
9180
9181
9182
9183
9184
9185
9186
9187
9188
9189
9190
9191
9192
9193
9194
9195
9196
9197
9198
9199
9200
9201
9202
9203
9204
9205
9206
9207
9208
9209
9210
9211
9212
9213
9214
9215
9216
9217
9218
9219
9220
9221
9222
9223
9224
9225
9226
9227
9228
9229
9230
9231
9232
9233
9234
9235
9236
9237
9238
9239
9240
9241
9242
9243
9244
9245
9246
9247
9248
9249
9250
9251
9252
9253
9254
9255
9256
9257
9258
9259
9260
9261
9262
9263
9264
9265
9266
9267
9268
9269
9270
9271
9272
9273
9274
9275
9276
9277
9278
9279
9280
9281
9282
9283
9284
9285
9286
9287
9288
9289
9290
9291
9292
9293
9294
9295
9296
9297
9298
9299
9300
9301
9302
9303
9304
9305
9306
9307
9308
9309
9310
9311
9312
9313
9314
9315
9316
9317
9318
9319
9320
9321
9322
9323
9324
9325
9326
9327
9328
9329
9330
9331
9332
9333
9334
9335
9336
9337
9338
9339
9340
9341
9342
9343
9344
9345
9346
9347
9348
9349
9350
9351
9352
9353
9354
9355
9356
9357
9358
9359
9360
9361
9362
9363
9364
9365
9366
9367
9368
9369
9370
9371
9372
9373
9374
9375
9376
9377
9378
9379
9380
9381
9382
9383
9384
9385
9386
9387
9388
9389
9390
9391
9392
9393
9394
9395
9396
9397
9398
9399
9400
9401
9402
9403
9404
9405
9406
9407
9408
9409
9410
9411
9412
9413
9414
9415
9416
9417
9418
9419
9420
9421
9422
9423
9424
9425
9426
9427
9428
9429
9430
9431
9432
9433
9434
9435
9436
9437
9438
9439
9440
9441
9442
9443
9444
9445
9446
9447
9448
9449
9450
9451
9452
9453
9454
9455
9456
9457
9458
9459
9460
9461
9462
9463
9464
9465
9466
9467
9468
9469
9470
9471
9472
9473
9474
9475
9476
9477
9478
9479
9480
9481
9482
9483
9484
9485
9486
9487
9488
9489
9490
9491
9492
9493
9494
9495
9496
9497
9498
9499
9500
9501
9502
9503
9504
9505
9506
9507
9508
9509
9510
9511
9512
9513
9514
9515
9516
9517
9518
9519
9520
9521
9522
9523
9524
9525
9526
9527
9528
9529
9530
9531
9532
9533
9534
9535
9536
9537
9538
9539
9540
9541
9542
9543
9544
9545
9546
9547
9548
9549
9550
9551
9552
9553
9554
9555
9556
9557
9558
9559
9560
9561
9562
9563
9564
9565
9566
9567
9568
9569
9570
9571
9572
9573
9574
9575
9576
9577
9578
9579
9580
9581
9582
9583
9584
9585
9586
9587
9588
9589
9590
9591
9592
9593
9594
9595
9596
9597
9598
9599
9600
9601
9602
9603
9604
9605
9606
9607
9608
9609
9610
9611
9612
9613
9614
9615
9616
9617
9618
9619
9620
9621
9622
9623
9624
9625
9626
9627
9628
9629
9630
9631
9632
9633
9634
9635
9636
9637
9638
9639
9640
9641
9642
9643
9644
9645
9646
9647
9648
9649
9650
9651
9652
9653
9654
9655
9656
9657
9658
9659
9660
9661
9662
9663
9664
9665
9666
9667
9668
9669
9670
9671
9672
9673
9674
9675
9676
9677
9678
9679
9680
9681
9682
9683
9684
9685
9686
9687
9688
9689
9690
9691
9692
9693
9694
9695
9696
9697
9698
9699
9700
9701
9702
9703
9704
9705
9706
9707
9708
9709
9710
9711
9712
9713
9714
9715
9716
9717
9718
9719
9720
9721
9722
9723
9724
9725
9726
9727
9728
9729
9730
9731
9732
9733
9734
9735
9736
9737
9738
9739
9740
9741
9742
9743
9744
9745
9746
9747
9748
9749
9750
9751
9752
9753
9754
9755
9756
9757
9758
9759
9760
9761
9762
9763
9764
9765
9766
9767
9768
9769
9770
9771
9772
9773
9774
9775
9776
9777
9778
9779
9780
9781
9782
9783
9784
9785
9786
9787
9788
9789
9790
9791
9792
9793
9794
9795
9796
9797
9798
9799
9800
9801
9802
9803
9804
9805
9806
9807
9808
9809
9810
9811
9812
9813
9814
9815
9816
9817
9818
9819
9820
9821
9822
9823
9824
9825
9826
9827
9828
9829
9830
9831
9832
9833
9834
9835
9836
9837
9838
9839
9840
9841
9842
9843
9844
9845
9846
9847
9848
9849
9850
9851
9852
9853
9854
9855
9856
9857
9858
9859
9860
9861
9862
9863
9864
9865
9866
9867
9868
9869
9870
9871
9872
9873
9874
9875
9876
9877
9878
9879
9880
9881
9882
9883
9884
9885
9886
9887
9888
9889
9890
9891
9892
9893
9894
9895
9896
9897
9898
9899
9900
9901
9902
9903
9904
9905
9906
9907
9908
9909
9910
9911
9912
9913
9914
9915
9916
9917
9918
9919
9920
9921
9922
9923
9924
9925
9926
9927
9928
9929
9930
9931
9932
9933
9934
9935
9936
9937
9938
9939
9940
9941
9942
9943
9944
9945
9946
9947
9948
9949
9950
9951
9952
9953
9954
9955
9956
9957
9958
9959
9960
9961
9962
9963
9964
9965
9966
9967
9968
9969
9970
9971
9972
9973
9974
9975
9976
9977
9978
9979
9980
9981
9982
9983
9984
9985
9986
9987
9988
9989
9990
9991
9992
9993
9994
9995
9996
9997
9998
9999
10000
10001
10002
10003
10004
10005
10006
10007
10008
10009
10010
10011
10012
10013
10014
10015
10016
10017
10018
10019
10020
10021
10022
10023
10024
10025
10026
10027
10028
10029
10030
10031
10032
10033
10034
10035
10036
10037
10038
10039
10040
10041
10042
10043
10044
10045
10046
10047
10048
10049
10050
10051
10052
10053
10054
10055
10056
10057
10058
10059
10060
10061
10062
10063
10064
10065
10066
10067
10068
10069
10070
10071
10072
10073
10074
10075
10076
10077
10078
10079
10080
10081
10082
10083
10084
10085
10086
10087
10088
10089
10090
10091
10092
10093
10094
10095
10096
10097
10098
10099
10100
10101
10102
10103
10104
10105
10106
10107
10108
10109
10110
10111
10112
10113
10114
10115
10116
10117
10118
10119
10120
10121
10122
10123
10124
10125
10126
10127
10128
10129
10130
10131
10132
10133
10134
10135
10136
10137
10138
10139
10140
10141
10142
10143
10144
10145
10146
10147
10148
10149
10150
10151
10152
10153
10154
10155
10156
10157
10158
10159
10160
10161
10162
10163
10164
10165
10166
10167
10168
10169
10170
10171
10172
10173
10174
10175
10176
10177
10178
10179
10180
10181
10182
10183
10184
10185
10186
10187
10188
10189
10190
10191
10192
10193
10194
10195
10196
10197
10198
10199
10200
10201
10202
10203
10204
10205
10206
10207
10208
10209
10210
10211
10212
10213
10214
10215
10216
10217
10218
10219
10220
10221
10222
10223
10224
10225
10226
10227
10228
10229
10230
10231
10232
10233
10234
10235
10236
10237
10238
10239
10240
10241
10242
10243
10244
10245
10246
10247
10248
10249
10250
10251
10252
10253
10254
10255
10256
10257
10258
10259
10260
10261
10262
10263
10264
10265
10266
10267
10268
10269
10270
10271
10272
10273
10274
10275
10276
10277
10278
10279
10280
10281
10282
10283
10284
10285
10286
10287
10288
10289
10290
10291
10292
10293
10294
10295
10296
10297
10298
10299
10300
10301
10302
10303
10304
10305
10306
10307
10308
10309
10310
10311
10312
10313
10314
10315
10316
10317
10318
10319
10320
10321
10322
10323
10324
10325
10326
10327
10328
10329
10330
10331
10332
10333
10334
10335
10336
10337
10338
10339
10340
10341
10342
10343
10344
10345
10346
10347
10348
10349
10350
10351
10352
10353
10354
10355
10356
10357
10358
10359
10360
10361
10362
10363
10364
10365
10366
10367
10368
10369
10370
10371
10372
10373
10374
10375
10376
10377
10378
10379
10380
10381
10382
10383
10384
10385
10386
10387
10388
10389
10390
10391
10392
10393
10394
10395
10396
10397
10398
10399
10400
10401
10402
10403
10404
10405
10406
10407
10408
10409
10410
10411
10412
10413
10414
10415
10416
10417
10418
10419
10420
10421
10422
10423
10424
10425
10426
10427
10428
10429
10430
10431
10432
10433
10434
10435
10436
10437
10438
10439
10440
10441
10442
10443
10444
10445
10446
10447
10448
10449
10450
10451
10452
10453
10454
10455
10456
10457
10458
10459
10460
10461
10462
10463
10464
10465
10466
10467
10468
10469
10470
10471
10472
10473
10474
10475
10476
10477
10478
10479
10480
10481
10482
10483
10484
10485
10486
10487
10488
10489
10490
10491
10492
10493
10494
10495
10496
10497
10498
10499
10500
10501
10502
10503
10504
10505
10506
10507
10508
10509
10510
10511
10512
10513
10514
10515
10516
10517
10518
10519
10520
10521
10522
10523
10524
10525
10526
10527
10528
10529
10530
10531
10532
10533
10534
10535
10536
10537
10538
10539
10540
10541
10542
10543
10544
10545
10546
10547
10548
10549
10550
10551
10552
10553
10554
10555
10556
10557
10558
10559
10560
10561
10562
10563
10564
10565
10566
10567
10568
10569
10570
10571
10572
10573
10574
10575
10576
10577
10578
10579
10580
10581
10582
10583
10584
10585
10586
10587
10588
10589
10590
10591
10592
10593
10594
10595
10596
10597
10598
10599
10600
10601
10602
10603
10604
10605
10606
10607
10608
10609
10610
10611
10612
10613
10614
10615
10616
10617
10618
10619
10620
10621
10622
10623
10624
10625
10626
10627
10628
10629
10630
10631
10632
10633
10634
10635
10636
10637
10638
10639
10640
10641
10642
10643
10644
10645
10646
10647
10648
10649
10650
10651
10652
10653
10654
10655
10656
10657
10658
10659
10660
10661
10662
10663
10664
10665
10666
10667
10668
10669
10670
10671
10672
10673
10674
10675
10676
10677
10678
10679
10680
10681
10682
10683
10684
10685
10686
10687
10688
10689
10690
10691
10692
10693
10694
10695
10696
10697
10698
10699
10700
10701
10702
10703
10704
10705
10706
10707
10708
10709
10710
10711
10712
10713
10714
10715
10716
10717
10718
10719
10720
10721
10722
10723
10724
10725
10726
10727
10728
10729
10730
10731
10732
10733
10734
10735
10736
10737
10738
10739
10740
10741
10742
10743
10744
10745
10746
10747
10748
10749
10750
10751
10752
10753
10754
10755
10756
10757
10758
10759
10760
10761
10762
10763
10764
10765
10766
10767
10768
10769
10770
10771
10772
10773
10774
10775
10776
10777
10778
10779
10780
10781
10782
10783
10784
10785
10786
10787
10788
10789
10790
10791
10792
10793
10794
10795
10796
10797
10798
10799
10800
10801
10802
10803
10804
10805
10806
10807
10808
10809
10810
10811
10812
10813
10814
10815
10816
10817
10818
10819
10820
10821
10822
10823
10824
10825
10826
10827
10828
10829
10830
10831
10832
10833
10834
10835
10836
10837
10838
10839
10840
10841
10842
10843
10844
10845
10846
10847
10848
10849
10850
10851
10852
10853
10854
10855
10856
10857
10858
10859
10860
10861
10862
10863
10864
10865
10866
10867
10868
10869
10870
10871
10872
10873
10874
10875
10876
10877
10878
10879
10880
10881
10882
10883
10884

CELL_DATA 17408 
SCALARS part int
LOOKUP_TABLE default
-1
-1
-1
-1
-1
-1
-1
-1
-1
-1
-1
-1
-1
-1
-1
-1
-1
-1
-1
-1
-1
-1
-1
-1
-1
-1
-1
-1
-1
-1
-1
-1
-1
-1
-1
-1
-1
-1
-1
-1
-1
-1
-1
-1
-1
-1
-1
-1
-1
-1
-1
-1
-1
-1
-1
-1
-1
-1
-1
-1
-1
-1
-1
-1
-1
-1
-1
-1
-1
-1
-1
-1
-1
-1
-1
-1
-1
-1
-1
-1
-1
-1
-1
-1
-1
-1
-1
-1
-1
-1
-1
-1
-1
-1
-1
-1
-1
-1
-1
-1
-1
-1
-1
-1
-1
-1
-1
-1
-1
-1
-1
-1
-1
-1
-1
-1
-1
-1
-1
-1
-1
-1
-1
-1
-1
-1
-1
-1
-1
-1
-1
-1
-1
-1
-1
-1
-1
-1
-1
-1
-1
-1
-1
-1
-1
-1
-1
-1
-1
-1
-1
-1
-1
-1
-1
-1
-1
-1
-1
-1
-1
-1
-1
-1
-1
-1
-1
-1
-1
-1
-1
-1
-1
-1
-1
-1
-1
-1
-1
-1
-1
-1
-1
-1
-1
-1
-1
-1
-1
-1
-1
-1
-1
-1
-1
-1
-1
-1
-1
-1
-1
-1
-1
-1
-1
-1
-1
-1
-1
-1
-1
-1
-1
-1
-1
-1
-1
-1
-1
-1
-1
-1
-1
-1
-1
-1
-1
-1
-1
-1
-1
-1
-1
-1
-1
-1
-1
-1
-1
-1
-1
-1
-1
-1
-1
-1
-1
-1
-1
-1
-1
-1
-1
-1
-1
-1
-1
-1
-1
-1
-1
-1
-1
-1
-1
-1
-1
-1
-1
-1
-1
-1
-1
-1
-1
-1
-1
-1
-1
-1
-1
-1
-1
-1
-1
-1
-1
-1
-1
-1
-1
-1
-1
-1
-1