# vtk DataFile Version 2.0
background mesh
ASCII
DATASET UNSTRUCTURED_GRID
POINTS 3381 double
-0.985040 0.172417 0.250000
-0.994820 -0.101778 0.251312
-0.998095 0.061728 0.000000
-0.536397 0.020705 0.500000
-0.397323 -0.482590 0.500000
-0.141785 -0.119495 0.000000
-0.594837 -0.085581 0.000000
-0.046372 -0.041349 0.500000
-0.353162 0.284591 0.000000
-0.776890 0.629633 0.250000
-0.838211 0.545305 0.000000
-0.453605 0.891213 0.000000
-0.959723 0.280960 0.500000
-0.978522 -0.206150 0.500000
-0.925491 0.378841 0.207269
-0.864088 -0.503370 0.250000
-0.392019 -0.552161 0.000000
-0.319354 0.430674 0.500000
-0.921766 -0.387748 0.000000
-0.791961 -0.610573 0.500000
0.168970 0.189442 0.000000
-0.999373 0.035656 0.250656
-0.993117 0.117255 0.125000
-0.760718 0.096561 0.375000
-0.999810 -0.020092 0.125656
-0.765608 -0.040537 0.375656
-0.767246 0.041217 0.250000
-0.269554 -0.301042 0.250000
-0.496080 -0.284085 0.250000
-0.466860 -0.230942 0.500000
-0.368311 -0.102538 0.000000
-0.339091 -0.049395 0.250000
-0.565617 -0.032438 0.250000
-0.291384 -0.010322 0.500000
-0.221848 -0.261969 0.500000
-0.094078 -0.080422 0.250000
-0.444779 0.152648 0.250000
-0.247473 0.082548 0.000000
-0.199767 0.121621 0.250000
-0.808654 0.588272 0.125000
-0.628991 0.777411 0.125000
-0.565026 0.457112 0.125000
-0.668664 0.743570 -0.000000
-0.595687 0.414948 0.000000
-0.403383 0.587902 0.000000
-0.999265 0.038568 0.500000
-0.995837 0.091291 0.375656
-0.748060 0.150832 0.500000
-0.988058 -0.154180 0.375656
-0.757460 -0.092722 0.500000
-0.639326 0.331716 0.103634
-0.474000 0.099505 0.000000
-0.760164 0.146630 0.103634
-0.730944 0.199773 0.353634
-0.630706 -0.492980 0.375000
-0.729463 -0.294475 0.125000
-0.700242 -0.241332 0.375000
-0.266902 -0.335828 0.000000
-0.493428 -0.318871 0.000000
-0.394671 -0.517375 0.250000
-0.960800 0.277226 0.228634
-0.973893 0.227041 0.375000
-0.943868 0.330341 0.353634
-0.427875 0.225689 0.500000
-0.336258 0.357632 0.250000
-0.182863 0.194662 0.500000
-0.628054 -0.527765 0.125000
-0.974768 0.223260 0.103634
-0.885779 0.464130 0.103634
-0.949470 0.313858 -0.000000
-0.796466 -0.011926 0.000000
-0.716524 0.229862 0.000000
-0.933221 -0.359349 0.375000
-0.950900 -0.309554 0.250656
-0.622422 0.404757 0.353634
-0.985902 -0.167419 0.000000
-0.968908 -0.247474 0.125656
-0.794829 -0.093679 0.125656
-0.758302 -0.236665 0.000000
-0.894806 -0.446497 0.125000
-0.656893 -0.469954 0.000000
-0.639539 0.355817 0.500000
-0.829768 -0.558144 0.375000
-0.908059 -0.418885 0.500000
-0.594642 -0.546581 0.500000
-0.687923 -0.344370 0.500000
-0.092096 0.237016 0.000000
0.013593 0.034973 0.000000
0.061299 0.074046 0.250000
-0.885647 0.464383 0.375000
-0.860387 0.509685 0.228634
-0.548122 0.530153 0.375000
-0.994562 0.104283 0.250328
-0.989463 0.144893 0.187500
-0.872879 0.134489 0.312500
-0.997080 0.076520 0.187828
-0.880046 0.066109 0.312828
-0.876918 0.106908 0.250000
-0.999464 -0.033139 0.250984
-0.999979 0.007785 0.188156
-0.882491 -0.002440 0.313156
-0.998153 -0.060986 0.188484
-0.880214 -0.071157 0.313484
-0.882709 -0.030314 0.250656
-0.998823 0.048697 0.125328
-0.995997 0.089527 0.062500
-0.880181 0.079236 0.187500
-0.999792 0.020836 0.062828
-0.883528 0.010562 0.187828
-0.882670 0.051472 0.125000
-0.763163 0.028012 0.375328
-0.763982 0.068889 0.312500
-0.648558 0.058633 0.437500
-0.766427 0.000340 0.312828
-0.651003 -0.009916 0.437828
-0.651821 0.030961 0.375000
-0.880264 0.038234 0.250328
-0.333439 -0.391816 0.375000
-0.446702 -0.383338 0.375000
-0.432092 -0.356766 0.500000
-0.382817 -0.292564 0.250000
-0.368207 -0.265992 0.375000
-0.481470 -0.257514 0.375000
-0.205669 -0.210269 0.125000
-0.318932 -0.201790 0.125000
-0.304322 -0.175219 0.250000
-0.255048 -0.111016 0.000000
-0.240438 -0.084445 0.125000
-0.353701 -0.075966 0.125000
-0.432196 -0.193312 0.125000
-0.545459 -0.184833 0.125000
-0.530849 -0.158262 0.250000
-0.481574 -0.094059 0.000000
-0.466964 -0.067488 0.125000
-0.580227 -0.059009 0.125000
-0.402976 -0.140169 0.375000
-0.516239 -0.131690 0.375000
-0.501629 -0.105119 0.500000
-0.452354 -0.040916 0.250000
-0.437744 -0.014345 0.375000
-0.551007 -0.005866 0.375000
-0.417586 -0.166740 0.250000
-0.413891 0.005191 0.500000
-0.379122 -0.120632 0.500000
-0.315238 -0.029858 0.375000
-0.344354 -0.246456 0.500000
-0.309585 -0.372280 0.500000
-0.245701 -0.281506 0.375000
-0.216585 -0.064908 0.250000
-0.181816 -0.190732 0.250000
-0.117932 -0.099958 0.125000
-0.256616 -0.136146 0.500000
-0.192731 -0.045372 0.375000
-0.168878 -0.025836 0.500000
-0.157963 -0.171196 0.375000
-0.134110 -0.151659 0.500000
-0.070225 -0.060886 0.375000
-0.280469 -0.155682 0.375000
-0.398971 0.218619 0.125000
-0.300318 0.183569 0.000000
-0.276464 0.203106 0.125000
-0.346126 0.117598 0.125000
-0.322273 0.137134 0.250000
-0.223620 0.102084 0.125000
-0.490588 0.086676 0.375000
-0.391935 0.051626 0.250000
-0.368082 0.071163 0.375000
-0.293282 0.016576 0.125000
-0.194629 -0.018474 0.000000
-0.170776 0.001063 0.125000
-0.245576 0.055649 0.375000
-0.146923 0.020599 0.250000
-0.123069 0.040136 0.375000
-0.269429 0.036113 0.250000
-0.793039 0.609158 0.187500
-0.706820 0.707405 0.187500
-0.670958 0.543373 0.187500
-0.725026 0.688734 0.125000
-0.686840 0.522692 0.125000
-0.597009 0.617262 0.125000
-0.823724 0.566989 0.062500
-0.742736 0.669596 0.062500
-0.702170 0.501610 0.062500
-0.759942 0.649998 -0.000000
-0.716949 0.480127 0.000000
-0.632176 0.579259 0.000000
-0.649048 0.760749 0.062500
-0.544279 0.838907 0.062500
-0.516187 0.682657 0.062500
-0.565968 0.824431 -0.000000
-0.536024 0.665736 0.000000
-0.428494 0.739558 0.000000
-0.580356 0.436030 0.062500
-0.484205 0.522507 0.062500
-0.459094 0.370851 0.062500
-0.499535 0.501425 0.000000
-0.474424 0.349769 0.000000
-0.378273 0.436247 0.000000
-0.616845 0.600341 0.062500
-0.986973 0.160984 0.500000
-0.982375 0.187001 0.437828
-0.853892 0.215896 0.500000
-0.997899 0.064952 0.437828
-0.873663 0.094700 0.500000
-0.871949 0.121062 0.437828
-0.996443 -0.084431 0.500000
-0.998326 -0.058078 0.437828
-0.878362 -0.027077 0.500000
-0.983641 -0.180229 0.437828
-0.867991 -0.149436 0.500000
-0.872759 -0.123451 0.437828
-0.999511 -0.031683 0.375656
-0.999997 -0.005267 0.313484
-0.880723 0.025377 0.375656
-0.991785 -0.128024 0.313484
-0.876833 -0.097358 0.375656
-0.752760 0.029055 0.500000
-0.756834 0.055148 0.437828
-0.642229 0.085769 0.500000
-0.761534 -0.066629 0.437828
-0.646928 -0.036009 0.500000
-0.868059 -0.001674 0.437828
-0.496244 0.308153 0.051817
-0.413581 0.192048 0.000000
-0.556663 0.215610 0.051817
-0.542053 0.242182 0.176817
-0.459390 0.126076 0.125000
-0.782409 0.355279 0.155452
-0.699745 0.239173 0.103634
-0.685135 0.265745 0.228634
-0.842827 0.262736 0.155452
-0.828217 0.289307 0.280452
-0.745554 0.173202 0.228634
-0.617082 0.123068 0.051817
-0.534418 0.006962 0.000000
-0.519808 0.033533 0.125000
-0.677501 0.030525 0.051817
-0.662890 0.057096 0.176817
-0.587862 0.176211 0.301817
-0.505198 0.060105 0.250000
-0.648280 0.083668 0.301817
-0.633670 0.110239 0.426817
-0.602472 0.149639 0.176817
-0.747397 -0.498175 0.312500
-0.796775 -0.398923 0.187500
-0.782165 -0.372351 0.312500
-0.680084 -0.393728 0.250000
-0.665474 -0.367156 0.375000
-0.714852 -0.267904 0.250000
-0.514014 -0.487785 0.437500
-0.563393 -0.388533 0.312500
-0.548783 -0.361961 0.437500
-0.612771 -0.289280 0.187500
-0.662150 -0.190028 0.062500
-0.647540 -0.163457 0.187500
-0.583551 -0.236137 0.437500
-0.632930 -0.136885 0.312500
-0.618320 -0.110314 0.437500
-0.598161 -0.262709 0.312500
-0.329461 -0.443995 0.000000
-0.442724 -0.435516 0.000000
-0.393345 -0.534768 0.125000
-0.380165 -0.327349 0.000000
-0.330787 -0.426602 0.125000
-0.444050 -0.418123 0.125000
-0.204343 -0.227661 0.000000
-0.317606 -0.219183 0.000000
-0.268228 -0.318435 0.125000
-0.430870 -0.210704 0.000000
-0.544133 -0.202226 0.000000
-0.494754 -0.301478 0.125000
-0.332113 -0.409209 0.250000
-0.445376 -0.400730 0.250000
-0.395997 -0.499983 0.375000
-0.381491 -0.309957 0.125000
-0.974333 0.225149 0.239317
-0.979849 0.199807 0.312500
-0.967670 0.252218 0.301817
-0.860759 0.186894 0.301817
-0.867306 0.161801 0.375000
-0.944508 0.328507 0.217952
-0.952701 0.303901 0.291134
-0.845872 0.238500 0.291134
-0.934995 0.354711 0.280452
-0.837406 0.265057 0.353634
-0.960259 0.279092 0.364317
-0.967178 0.254098 0.437500
-0.860977 0.188937 0.437500
-0.952109 0.305751 0.426817
-0.845964 0.240587 0.426817
-0.745831 0.148167 0.364317
-0.754389 0.123697 0.437500
-0.739502 0.175303 0.426817
-0.852293 0.213451 0.364317
-0.482136 0.123197 0.500000
-0.436327 0.189169 0.375000
-0.359630 0.107684 0.500000
-0.390519 0.255140 0.250000
-0.344710 0.321112 0.125000
-0.268012 0.239627 0.250000
-0.382067 0.291661 0.375000
-0.373615 0.328182 0.500000
-0.305369 0.210176 0.500000
-0.327806 0.394153 0.375000
-0.259560 0.276147 0.375000
-0.251108 0.312668 0.500000
-0.237124 0.092170 0.500000
-0.191315 0.158142 0.375000
-0.114617 0.076657 0.500000
-0.313821 0.173655 0.375000
-0.611445 -0.306673 0.062500
-0.678758 -0.411120 0.125000
-0.746071 -0.515568 0.187500
-0.629380 -0.510373 0.250000
-0.560741 -0.423318 0.062500
-0.510036 -0.539963 0.062500
-0.511362 -0.522570 0.187500
-0.512688 -0.505178 0.312500
-0.562067 -0.405925 0.187500
-0.953289 0.302051 0.155452
-0.906636 0.421952 0.155452
-0.938043 0.346561 0.103634
-0.867466 0.184945 0.103634
-0.822972 0.305380 0.103634
-0.989742 0.142972 0.051817
-0.963177 0.268855 0.051817
-0.885617 0.105667 0.051817
-0.981922 0.189363 -0.000000
-0.897281 0.024901 0.000000
-0.872968 0.150966 0.000000
-0.920713 0.390304 0.051817
-0.862975 0.505291 0.051817
-0.801152 0.346996 0.051817
-0.901320 0.433179 -0.000000
-0.832997 0.271860 0.000000
-0.777368 0.387584 0.000000
-0.778315 0.067352 0.051817
-0.738344 0.188246 0.051817
-0.756495 0.108968 0.000000
-0.695652 -0.048754 0.000000
-0.655681 0.072141 0.000000
-0.854817 0.230244 0.051817
-0.958942 -0.283657 0.437500
-0.966099 -0.258224 0.375328
-0.845340 -0.226036 0.437500
-0.901538 -0.432743 0.312500
-0.942390 -0.334568 0.312828
-0.816732 -0.300341 0.375000
[...]
POINT_DATA 3381 
SCALARS nodeID int
LOOKUP_TABLE default
42
41
21
61
57
53
49
62
54
40
20
19
23
24
39
43
46
56
22
25
51
272
273
274
275
276
277
270
278
279
280
281
282
283
271
135
284
285
202
286
194
198
287
288
195
289
290
291
292
293
294
295
296
297
267
298
299
268
300
269
301
302
303
304
201
203
266
305
306
307
308
309
310
311
312
313
314
315
316
262
263
197
264
317
265
318
200
129
131
196
319
199
1611
1612
1613
1614
1615
1616
1617
1618
1619
1620
1621
1622
1623
1624
1625
1626
1627
1628
1629
1630
1631
1632
1633
1634
1635
1593
1636
1637
1638
1639
1640
1589
1641
1642
1643
1644
1645
1646
1647
1648
1649
1650
1651
1652
1653
1654
1655
1656
1657
1658
1659
1660
1661
1662
1594
1610
1663
1596
721
1664
1665
1666
1597
1595
732
1667
1668
1669
1164
1670
1671
1672
1673
1674
1675
1676
1677
1678
1679
1680
1169
1681
1682
1155
1157
1683
1684
1174
1685
1686
1687
1688
1689
1690
1691
1151
1173
1692
1693
1152
1694
1175
1161
1695
1696
1160
1697
1698
1699
1700
1701
1702
1703
1704
1705
1706
1707
1708
1709
1710
1711
1712
1713
1714
1715
1716
1717
1718
1719
1720
1721
1722
1723
1724
1725
1726
1727
1728
1729
1730
1731
1732
1733
1734
1735
1736
1737
1738
1739
1740
1741
1583
1742
1743
1744
1745
1746
1591
1747
1748
1749
1750
1751
1752
1753
1754
1755
1586
1756
1587
1757
1607
1758
1588
1759
1608
1760
1761
1762
1609
1763
1592
1764
1765
1766
1767
1768
1769
1770
1771
1772
1773
1774
1775
1776
1777
1778
1779
1780
1781
1782
1783
1784
1785
1786
1787
1163
1183
1788
1789
1790
1167
1184
1168
1791
1185
1170
1792
1793
1794
1582
1604
1795
1585
1605
1606
1796
1797
1798
1799
1800
1801
1802
1803
1804
1805
1806
1807
1808
1809
1810
1811
1812
1813
1814
1815
1816
1817
1818
1819
1820
1821
1822
1823
1824
1825
1826
1827
1828
1829
1830
1831
1832
1833
1834
1835
1836
1837
1838
1839
1840
1841
1842
1843
1844
1845
1846
1847
1848
1849
1850
1851
1852
1853
1854
1855
1856
1857
1858
1859
1860
1861
1862
1863
1580
1864
1865
1866
1576
1867
1868
1869
1870
1871
1872
1873
1584
1600
1874
1577
1598
1875
1599
1876
1877
1165
1878
1879
1154
1880
1881
1882
1883
1884
1578
1885
1579
1886
1601
1887
1581
1888
1602
1889
1890
1891
1892
1893
1894
1603
1895
1590
1896
1897
1898
1899
1900
1901
1902
1159
711
713
1903
1171
756
1162
1904
1182
1905
718
757
1172
760
731
1906
1907
1908
1909
1910
1911
1912
1913
1156
1914
1158
1915
1177
1916
1153
1917
1176
1918
1919
1920
1178
1921
1166
1922
1923
1924
1925
1926
1927
1928
1929
1930
1931
1932
1933
1934
1935
1936
1937
1938
1939
1940
1180
1179
1181
1941
1942
1943
1944
1945
1946
1947
1948
1949
1950
1951
1952
1953
1954
10885
10886
10887
10888
10889
10890
10891
10892
10893
10894
10895
10896
10897
10898
10899
10900
10901
10902
10903
10904
10905
10906
10907
10908
10909
10910
10911
10912
10913
10914
10915
10916
10917
10918
10919
10920
10921
10922
10923
10924
10925
10926
10927
10928
10929
10930
10931
10932
10933
10934
10935
10936
10937
10938
10939
10940
10941
10942
10943
10944
10945
10946
10947
10948
10949
10950
10951
10952
10953
10954
10955
10956
10957
10958
10959
10960
10961
10962
10963
10964
10965
10966
10967
10968
10969
10970
10971
10972
10973
10974
10975
10976
10977
10978
10979
10980
10981
10982
10983
10984
10985
10986
10987
10988
10989
10990
10991
10992
10993
10994
10995
10996
10997
10998
10999
11000
11001
11002
11003
11004
11005
11006
11007
11008
11009
11010
11011
11012
11013
11014
10772
11015
11016
11017
11018
11019
10816
11020
11021
11022
11023
11024
11025
11026
11027
11028
11029
11030
11031
11032
11033
11034
11035
11036
11037
10815
11038
11039
11040
11041
11042
10768
11043
11044
11045
11046
11047
11048
11049
11050
11051
11052
11053
11054
11055
11056
11057
11058
11059
11060
11061
11062
11063
11064
11065
11066
11067
11068
11069
11070
11071
11072
11073
11074
11075
11076
11077
11078
11079
11080
11081
11082
11083
11084
11085
11086
11087
11088
11089
11090
11091
11092
11093
11094
11095
11096
11097
11098
11099
11100
11101
11102
11103
11104
11105
11106
11107
11108
11109
11110
11111
11112
11113
11114
11115
11116
11117
11118
11119
11120
11121
11122
11123
11124
11125
11126
11127
11128
11129
11130
11131
11132
11133
11134
11135
11136
11137
11138
11139
11140
11141
11142
11143
11144
11145
11146
11147
11148
11149
11150
11151
11152
11153
11154
11155
11156
11157
11158
11159
11160
10773
10865
11161
10867
10820
11162
11163
11164
10868
10821
10824
11165
11166
11167
11168
11169
10817
10855
11170
10825
4737
11171
11172
11173
10826
10775
4849
11174
11175
11176
11177
11178
11179
11180
11181
11182
11183
10823
10822
10869
11184
11185
11186
10776
10828
4850
11187
11188
11189
10827
10774
4748
11190
11191
11192
11193
11194
11195
11196
11197
11198
11199
11200
11201
11202
11203
11204
10871
11205
10870
10872
11206
11207
11208
11209
11210
11211
11212
11213
11214
11215
11216
7810
11217
11218
11219
11220
11221
11222
11223
11224
11225
11226
11227
11228
11229
11230
11231
11232
11233
7857
11234
11235
11236
11237
11238
11239
11240
11241
11242
11243
11244
11245
11246
11247
11248
11249
11250
11251
11252
11253
11254
11255
11256
11257
11258
11259
11260
11261
11262
11263
11264
11265
11266
11267
11268
11269
11270
11271
7858
11272
11273
11274
11275
11276
11277
11278
11279
11280
11281
11282
7815
11283
11284
11285
11286
11287
11288
11289
11290
11291
11292
11293
11294
11295
11296
11297
11298
11299
11300
11301
11302
11303
11304
11305
11306
11307
11308
11309
11310
11311
7801
7803
11312
11313
7877
11314
11315
11316
11317
11318
11319
11320
7820
7878
11321
11322
7822
11323
7882
7835
11324
11325
7837
11326
11327
11328
11329
11330
11331
11332
11333
11334
11335
11336
11337
11338
11339
11340
11341
11342
11343
11344
11345
11346
11347
11348
11349
11350
11351
11352
7819
7821
11353
11354
7872
11355
11356
11357
11358
11359
11360
11361
7797
7871
11362
11363
7798
11364
7873
7825
11365
11366
7823
11367
11368
7838
7836
11369
11370
7890
11371
11372
11373
11374
11375
11376
11377
7826
7888
11378
11379
7824
11380
7887
7807
11381
11382
7806
11383
11384
11385
11386
11387
11388
11389
11390
11391
11392
11393
11394
11395
11396
11397
11398
11399
11400
11401
11402
11403
11404
11405
11406
11407
11408
11409
7917
7916
7915
11410
11411
11412
11413
11414
11415
11416
11417
11418
11419
11420
11421
11422
11423
11424
11425
11426
11427
11428
11429
11430
11431
11432
11433
11434
11435
11436
11437
11438
11439
11440
11441
11442
11443
11444
11445
11446
11447
11448
11449
11450
11451
11452
11453
11454
11455
11456
11457
11458
11459
11460
11461
11462
11463
11464
11465
11466
11467
11468
11469
11470
11471
11472
11473
11474
11475
11476
11477
11478
11479
11480
11481
11482
11483
11484
11485
11486
11487
11488
11489
11490
11491
11492
11493
11494
11495
11496
11497
11498
11499
11500
11501
11502
11503
11504
11505
11506
11507
11508
11509
11510
11511
11512
11513
11514
11515
11516
11517
11518
11519
11520
11521
11522
11523
11524
11525
11526
11527
11528
11529
11530
11531
11532
11533
11534
11535
11536
11537
11538
11539
11540
11541
11542
11543
11544
11545
11546
11547
11548
11549
11550
11551
11552
11553
11554
11555
11556
11557
11558
11559
11560
11561
11562
11563
11564
11565
11566
11567
11568
11569
11570
11571
11572
11573
11574
11575
11576
11577
11578
11579
11580
11581
11582
11583
11584
11585
11586
11587
11588
11589
11590
11591
11592
11593
11594
11595
11596
11597
11598
11599
11600
11601
11602
11603
11604
11605
11606
11607
11608
11609
11610
11611
11612
11613
11614
11615
11616
11617
11618
11619
11620
11621
11622
11623
11624
11625
11626
11627
11628
11629
11630
11631
11632
11633
11634
11635
11636
11637
11638
11639
11640
11641
11642
11643
11644
11645
11646
11647
11648
11649
11650
11651
11652
11653
11654
11655
11656
11657
11658
10762
11659
11660
11661
11662
11663
10799
11664
11665
11666
11667
11668
11669
11670
11671
11672
11673
11674
11675
11676
11677
11678
11679
11680
11681
10800
11682
11683
11684
11685
11686
10770
11687
11688
11689
11690
11691
11692
11693
11694
11695
11696
11697
11698
11699
11700
11701
11702
11703
11704
11705
11706
11707
11708
11709
11710
11711
11712
11713
11714
11715
11716
11717
11718
11719
11720
11721
11722
11723
11724
11725
11726
11727
11728
11729
11730
11731
11732
11733
11734
11735
11736
11737
11738
11739
11740
11741
11742
11743
11744
11745
11746
11747
11748
11749
11750
11751
11752
11753
11754
10765
11755
10766
11756
10849
11757
10805
11758
10850
11759
10807
11760
11761
11762
11763
11764
11765
11766
10852
11767
10809
11768
10813
11769
11770
10806
11771
10808
11772
10854
11773
10767
11774
10853
11775
11776
11777
10856
11778
10818
11779
11780
11781
11782
11783
11784
11785
11786
11787
11788
11789
11790
11791
11792
11793
11794
11795
10814
11796
10810
11797
10864
11798
10819
11799
10866
11800
11801
11802
10862
11803
10771
11804
11805
11806
10883
11807
11808
10882
11809
11810
11811
10884
11812
11813
11814
11815
11816
11817
11818
11819
11820
11821
11822
11823
11824
11825
11826
11827
11828
11829
11830
11831
11832
11833
11834
11835
11836
11837
11838
11839
11840
11841
11842
11843
11844
11845
11846
11847
11848
11849
11850
11851
11852
11853
11854
11855
11856
11857
11858
11859
11860
11861
11862
11863
11864
11865
11866
11867
11868
11869
11870
11871
11872
11873
11874
11875
11876
11877
11878
11879
11880
11881
11882
11883
11884
11885
11886
11887
11888
11889
11890
11891
11892
11893
11894
11895
11896
11897
11898
11899
11900
11901
11902
11903
11904
11905
11906
11907
11908
11909
11910
11911
11912
11913
11914
11915
11916
11917
11918
11919
11920
11921
11922
11923
11924
11925
11926
11927
11928
11929
11930
11931
11932
11933
11934
11935
11936
11937
11938
11939
11940
11941
11942
11943
11944
11945
11946
11947
11948
11949
11950
11951
11952
11953
11954
11955
11956
11957
11958
11959
11960
11961
11962
11963
11964
11965
11966
7809
7894
11967
11968
11969
7851
7896
7855
11970
7898
7861
11971
11972
11973
11974
11975
11976
11977
11978
11979
11980
7852
7856
7906
11981
11982
11983
7813
7904
7814
11984
11985
11986
7907
7865
7863
11987
11988
11989
11990
11991
7862
7910
11992
11993
11994
7866
7911
7864
11995
7908
7816
11996
11997
11998
11999
12000
12001
12002
12003
12004
12005
12006
12007
7924
12008
7926
7925
12009
12010
12011
12012
12013
12014
12015
12016
12017
12018
12019
12020
12021
12022
12023
12024
12025
12026
12027
12028
12029
12030
12031
12032
12033
10761
10839
12034
12035
12036
10793
10841
10797
12037
10843
10803
12038
12039
12040
12041
12042
12043
12044
10794
10798
10848
12045
10764
10846
12046
10851
10811
12047
12048
12049
10804
10861
12050
10812
10863
10859
12051
12052
12053
12054
12055
12056
12057
12058
12059
12060
12061
12062
10879
12063
10881
10880
12064
12065
12066
12067
12068
12069
12070
12071
12072
12073
12074
12075
12076
12077
12078
12079
12080
12081
12082
12083
12084
12085
12086
12087
12088
12089
12090
12091
12092
12093
12094
12095
12096
12097
12098
12099
12100
12101
12102
12103
12104
12105
12106
12107
12108
12109
12110
12111
12112
12113
12114
12115
12116
12117
12118
12119
12120
12121
12122
12123
12124
12125
12126
12127
12128
12129
12130
12131
12132
12133
12134
12135
12136
12137
12138
12139
12140
12141
12142
12143
12144
12145
12146
12147
12148
12149
12150
12151
12152
12153
12154
12155
12156
12157
12158
12159
12160
12161
12162
12163
12164
12165
12166
12167
12168
12169
12170
12171
12172
12173
12174
12175
12176
12177
12178
12179
12180
12181
12182
12183
12184
12185
12186
12187
12188
12189
12190
12191
12192
12193
12194
12195
12196
12197
12198
12199
12200
12201
12202
12203
12204
12205
12206
12207
12208
12209
12210
12211
12212
12213
12214
12215
12216
12217
12218
12219
12220
12221
12222
12223
12224
12225
12226
12227
12228
12229
12230
12231
12232
12233
12234
12235
12236
12237
12238
12239
12240
12241
12242
12243
12244
12245
12246
12247
12248
12249
12250
12251
12252
12253
12254
12255
12256
12257
12258
12259
12260
12261
12262
12263
12264
12265
12266
12267
12268
12269
12270
12271
12272
12273
12274
12275
12276
12277
12278
12279
12280
12281
12282
12283
12284
12285
12286
12287
12288
12289
12290
12291
12292
12293
12294
12295
12296
12297
12298
12299
12300
12301
12302
12303
12304
12305
12306
12307
12308
12309
12310
12311
12312
12313
12314
12315
12316
12317
12318
12319
12320
12321
12322
12323
12324
12325
12326
12327
12328
12329
12330
12331
12332
12333
12334
12335
12336
12337
12338
12339
12340
12341
12342
12343
12344
12345
12346
12347
12348
12349
12350
12351
12352
12353
12354
12355
12356
12357
12358
12359
12360
12361
12362
12363
12364
12365
12366
12367
12368
12369
12370
12371
12372
12373
12374
12375
12376
12377
12378
12379
12380
12381
12382
12383
12384
12385
12386
12387
12388
12389
12390
12391
12392
12393
12394
12395
12396
12397
12398
12399
12400
12401
12402
12403
12404
12405
12406
12407
12408
12409
12410
12411
12412
12413
12414
12415
12416
12417
12418
12419
12420
12421
12422
12423
12424
12425
12426
12427
12428
12429
12430
12431
12432
12433
12434
12435
12436
12437
12438
12439
12440
12441
12442
12443
12444
12445
12446
12447
12448
12449
12450
12451
12452
12453
12454
12455
12456
12457
12458
12459
12460
12461
12462
12463
12464
12465
12466
12467
12468
12469
12470
12471
12472
12473
12474
12475
12476
12477
12478
12479
12480
12481
12482
12483
12484
12485
12486
12487
12488
12489
12490
10759
12491
12492
12493
10778
12494
12495
12496
12497
12498
12499
12500
12501
12502
12503
12504
12505
12506
12507
12508
12509
10777
12510
12511
12512
12513
12514
10755
12515
12516
12517
12518
12519
12520
12521
12522
12523
12524
12525
12526
12527
12528
12529
12530
12531
12532
12533
12534
12535
12536
12537
12538
12539
12540
12541
12542
12543
12544
12545
12546
12547
12548
12549
12550
12551
12552
12553
12554
12555
12556
12557
12558
12559
12560
12561
12562
12563
12564
12565
12566
12567
12568
12569
12570
12571
12572
12573
12574
12575
12576
12577
12578
10763
10844
12579
10782
10845
12580
10784
12581
12582
10847
10796
12583
12584
12585
12586
12587
10781
10783
12588
10831
12589
12590
10756
10829
12591
10830
10779
12592
12593
12594
12595
12596
10795
10840
12597
10780
10836
12598
10835
12599
12600
12601
12602
12603
12604
12605
12606
12607
12608
12609
12610
12611
12612
12613
12614
12615
12616
12617
12618
12619
12620
12621
12622
12623
12624
12625
10874
12626
10873
12627
10875
12628
12629
12630
7811
12631
12632
7832
12633
12634
12635
12636
12637
12638
12639
12640
12641
12642
12643
12644
7831
12645
12646
12647
12648
12649
7800
12650
12651
12652
12653
12654
12655
12656
12657
12658
12659
12660
12661
12662
12663
12664
12665
12666
12667
12668
12669
12670
12671
12672
12673
12674
12675
12676
12677
12678
12679
12680
12681
12682
12683
12684
12685
12686
12687
12688
12689
12690
12691
12692
12693
12694
12695
12696
12697
12698
12699
12700
10757
12701
10758
12702
10832
12703
10785
12704
10833
12705
10787
12706
12707
12708
12709
12710
12711
12712
10834
12713
10789
12714
10791
12715
12716
10786
12717
10788
12718
10838
12719
10760
12720
10837
12721
12722
12723
12724
12725
12726
10842
12727
10801
12728
12729
12730
12731
12732
12733
12734
12735
12736
12737
12738
12739
12740
12741
12742
12743
12744
12745
12746
12747
12748
12749
12750
12751
12752
12753
10792
12754
10790
12755
10858
12756
10802
12757
10860
12758
12759
12760
12761
12762
12763
12764
12765
10857
12766
10769
12767
12768
12769
12770
12771
10877
12772
12773
10876
12774
12775
12776
10878
12777
12778
12779
12780
12781
12782
12783
12784
12785
12786
12787
12788
12789
12790
12791
12792
12793
12794
12795
12796
12797
12798
12799
12800
12801
12802
12803
12804
12805
12806
12807
12808
12809
12810
12811
12812
12813
12814
12815
12816
12817
12818
12819
12820
12821
12822
12823
12824
12825
12826
12827
12828
12829
12830
12831
12832
12833
12834
12835
12836
12837
12838
12839
12840
12841
12842
12843
12844
12845
12846
12847
12848
7805
4727
4729
12849
7867
4907
7847
12850
7886
12851
7849
12852
12853
4817
4908
12854
12855
4819
7868
4912
4827
12856
7817
4829
12857
7848
12858
7850
12859
7893
12860
7808
12861
7892
12862
12863
12864
7897
12865
7860
12866
12867
4818
4820
12868
12869
4924
12870
12871
12872
12873
4734
4923
12874
4930
4851
12875
7818
4831
4828
12876
7870
4955
7859
12877
7909
12878
4852
4958
7869
4953
4747
12879
12880
12881
7912
12882
12883
7913
12884
12885
12886
7914
12887
12888
12889
12890
12891
12892
12893
12894
12895
12896
12897
12898
12899
4984
4985
4983
12900
12901
12902
12903
12904
12905
12906
12907
12908
12909
12910
12911
12912
12913
12914
12915
12916
12917
12918
12919
12920
12921
12922
12923
12924
12925
12926
12927
12928
12929
12930
12931
12932
12933
12934
12935
12936
12937
12938
12939
12940
12941
12942
12943
12944
12945
12946
12947
12948
12949
12950
12951
12952
12953
12954
12955
12956
12957
12958
12959
12960
12961
12962
12963
12964
12965
12966
12967
12968
12969
12970
7802
12971
7804
12972
7879
12973
7828
12974
7880
12975
7830
12976
12977
12978
12979
12980
12981
12982
7884
12983
7841
12984
7843
12985
12986
7827
12987
7829
12988
7875
12989
7799
12990
7874
12991
12992
12993
7876
12994
7833
12995
12996
12997
12998
12999
13000
13001
13002
13003
13004
13005
13006
13007
13008
13009
13010
13011
7844
13012
7842
13013
7902
13014
7834
13015
7900
13016
13017
13018
7899
13019
7812
13020
13021
13022
7920
13023
13024
7918
13025
13026
13027
7919
13028
13029
13030
13031
13032
13033
13034
13035
13036
13037
13038
13039
13040
13041
13042
13043
13044
13045
13046
13047
13048
13049
13050
13051
13052
13053
13054
13055
13056
13057
13058
13059
13060
13061
13062
13063
13064
13065
13066
13067
13068
13069
13070
13071
13072
13073
13074
13075
13076
13077
13078
13079
13080
13081
13082
13083
13084
13085
13086
13087
13088
13089
13090
13091
13092
13093
13094
13095
13096
13097
13098
13099
13100
13101
13102
13103
13104
13105
13106
13107
13108
13109
13110
13111
13112
13113
13114
13115
13116
13117
13118
13119
13120
13121
13122
13123
13124
13125
13126
13127
13128
13129
13130
13131
13132
13133
13134
13135
13136
13137
13138
13139
13140
13141
13142
13143
13144
13145
13146
13147
13148
13149
13150
13151
13152
13153
13154
13155
13156
13157
13158
13159
13160
13161
13162
13163
13164
13165
13166
13167
13168
13169
13170
13171
13172
13173
13174
13175
13176
13177
13178
13179
13180
13181
13182
13183
13184
13185
13186
13187
13188
13189
13190
13191
13192
13193
13194
13195
13196
13197
13198
13199
13200
13201
13202
13203
13204
13205
13206
13207
13208
13209
13210
13211
13212
13213
13214
13215
13216
13217
13218
13219
13220
13221
13222
13223
13224
13225
13226
13227
13228
13229
13230
13231
13232
13233
13234
13235
13236
13237
13238
13239
13240
13241
7889
13242
7891
7840
13243
7895
7853
13244
13245
13246
7839
7883
7881
13247
7885
7845
13248
13249
13250
7854
7905
13251
7846
7903
7901
13252
13253
13254
13255
13256
13257
13258
13259
13260
13261
13262
13263
7921
13264
7922
7923
13265
13266
13267
13268
13269
13270
13271
13272
13273
13274
13275
13276
13277
13278
13279
13280
13281
13282
13283
13284
13285
13286
13287
13288
13289
13290
13291
13292
13293
13294
13295
13296
13297
13298
13299
13300
13301
13302
13303
13304
13305
13306
13307
13308
13309
13310
13311
13312
13313
13314
13315
13316
13317
13318
13319
13320
13321
13322
13323
13324
13325
13326
13327
13328
13329
13330
13331
13332
13333
13334
13335
13336
13337
13338
13339
13340
13341
13342
13343
13344
13345
13346
13347
13348
13349
13350
13351
13352
13353
13354
13355
13356
13357
13358
13359
13360
13361
13362
13363
13364
13365
13366
13367
13368
13369
13370
13371
13372
13373
13374
13375
13376
13377
13378
13379
13380
13381
13382
13383
13384
13385
13386
13387
13388
13389
13390
13391
13392
13393
13394
13395
13396
13397
13398
13399
13400
13401
13402
13403
13404
13405
13406
13407
13408
13409
13410
13411
13412
13413
13414
13415
13416
13417
13418
13419
13420
13421
13422
13423
13424
13425
13426
13427
13428
13429
13430
13431
13432
13433
13434
13435
13436
13437
13438
13439
13440
13441
13442
13443
13444
13445
13446
13447
13448
13449
13450
13451
13452
13453
13454
13455
13456
13457
13458
13459
13460

CELL_DATA 2432 
SCALARS iOppoProc int
LOOKUP_TABLE default
-1
-1
-1
-1
-1
-1
-1
-1
-1
-1
-1
-1
-1
-1
-1
-1
-1
-1
-1
-1
-1
-1
-1
-1
-1
-1
-1
-1
-1
-1
-1
-1
-1
-1
-1
-1
-1
-1
-1
-1
-1
-1
-1
-1
-1
-1
-1
-1
-1
-1
-1
-1
-1
-1
-1
-1
-1
-1
-1
-1
-1
-1
-1
-1
-1
-1
-1
-1
-1
-1
-1
-1
-1
-1
-1
-1
-1
-1
-1
-1
-1
-1
-1
-1
-1
-1
-1
-1
-1
-1
-1
-1
-1
-1
-1
-1
-1
-1
-1
-1
-1
-1
-1
-1
-1
-1
-1
-1
-1
-1
-1
-1
-1
-1
-1
-1
-1
-1
-1
-1
-1
-1
-1
-1
-1
-1
-1
-1
-1
-1
-1